# vtk DataFile Version 3.0
vtk output
ASCII
DATASET RECTILINEAR_GRID
FIELD FieldData 4
MeshName 1 1 string
mesh

CYCLE 1 1 int
10 
TIME 1 1 double
10 
avtOriginalBounds 1 6 double
0 1.95312 0.305176 0.549316 0 1.95312 
DIMENSIONS 33 5 33
X_COORDINATES 33 double
0 0.0610352 0.12207 0.183105 0.244141 0.305176 0.366211 0.427246 0.488281 
0.549316 0.610352 0.671387 0.732422 0.793457 0.854492 0.915527 0.976562 1.0376 
1.09863 1.15967 1.2207 1.28174 1.34277 1.40381 1.46484 1.52588 1.58691 
1.64795 1.70898 1.77002 1.83105 1.89209 1.95312 
Y_COORDINATES 5 double
0.305176 0.366211 0.427246 0.488281 0.549316 
Z_COORDINATES 33 double
0 0.0610352 0.12207 0.183105 0.244141 0.305176 0.366211 0.427246 0.488281 
0.549316 0.610352 0.671387 0.732422 0.793457 0.854492 0.915527 0.976562 1.0376 
1.09863 1.15967 1.2207 1.28174 1.34277 1.40381 1.46484 1.52588 1.58691 
1.64795 1.70898 1.77002 1.83105 1.89209 1.95312 
CELL_DATA 4096
SCALARS simdata double
LOOKUP_TABLE default
6.8821e+09 6.82059e+09 7.04353e+09 6.65207e+09 6.944e+09 7.16651e+09 6.83494e+09 6.7234e+09 7.05369e+09 
6.93162e+09 6.93046e+09 6.92315e+09 7.41734e+09 7.28888e+09 7.11568e+09 6.83484e+09 7.6617e+09 7.21461e+09 
7.12303e+09 7.0881e+09 7.02474e+09 6.96799e+09 7.07664e+09 6.9141e+09 6.8372e+09 6.84002e+09 7.1598e+09 
7.05949e+09 6.83694e+09 7.02016e+09 6.8704e+09 6.79019e+09 6.92204e+09 6.94154e+09 7.37048e+09 6.64097e+09 
6.99332e+09 7.28309e+09 6.90371e+09 7.00626e+09 7.12118e+09 6.89647e+09 6.92669e+09 6.98761e+09 6.86671e+09 
6.83685e+09 6.88983e+09 6.66657e+09 7.43167e+09 7.37676e+09 7.07349e+09 6.91713e+09 6.59957e+09 6.77712e+09 
6.7222e+09 6.85318e+09 6.79558e+09 6.95752e+09 6.93281e+09 7.41199e+09 7.23132e+09 7.1667e+09 6.80974e+09 
6.84992e+09 6.84642e+09 7.05662e+09 7.04737e+09 7.01505e+09 7.29312e+09 6.81888e+09 6.86574e+09 6.98859e+09 
6.98655e+09 7.09028e+09 7.33767e+09 6.84942e+09 6.66323e+09 6.71124e+09 6.74684e+09 7.32391e+09 6.98123e+09 
6.81703e+09 7.05952e+09 6.90563e+09 6.80898e+09 6.71426e+09 6.99143e+09 6.92242e+09 6.68246e+09 6.98036e+09 
6.80717e+09 7.17491e+09 7.22722e+09 6.98874e+09 6.93386e+09 6.94137e+09 6.86751e+09 6.93498e+09 6.87937e+09 
6.9327e+09 7.14736e+09 7.23885e+09 7.25238e+09 7.07271e+09 6.82811e+09 6.64512e+09 6.82562e+09 6.87102e+09 
7.06867e+09 6.98502e+09 6.81629e+09 7.22064e+09 7.00296e+09 6.82171e+09 6.92145e+09 6.91416e+09 6.74555e+09 
6.79054e+09 6.77096e+09 7.01814e+09 6.73613e+09 6.79996e+09 6.82559e+09 6.95771e+09 7.36413e+09 7.22304e+09 
6.904e+09 6.80563e+09 6.8177e+09 6.7052e+09 6.88641e+09 6.84537e+09 7.22309e+09 7.34892e+09 7.1537e+09 
6.8944e+09 6.83107e+09 7.06433e+09 6.80031e+09 6.79699e+09 7.04132e+09 7.10631e+09 7.69365e+09 7.30832e+09 
7.25208e+09 7.07293e+09 7.09286e+09 7.17182e+09 6.93841e+09 7.12633e+09 6.9326e+09 6.98986e+09 7.06131e+09 
7.03042e+09 7.28862e+09 7.07903e+09 7.02544e+09 6.81489e+09 6.69121e+09 6.88142e+09 6.84772e+09 7.06471e+09 
6.84803e+09 6.92564e+09 7.15337e+09 6.92558e+09 6.89615e+09 6.58517e+09 6.72078e+09 7.08709e+09 6.75725e+09 
6.79829e+09 6.93415e+09 6.77111e+09 7.51594e+09 6.71473e+09 6.82898e+09 6.9969e+09 6.99632e+09 7.21559e+09 
6.72591e+09 6.59006e+09 6.65585e+09 6.84064e+09 7.01514e+09 6.96965e+09 6.9626e+09 6.86878e+09 6.90259e+09 
7.07357e+09 6.8321e+09 6.67305e+09 6.81906e+09 6.83377e+09 6.73243e+09 7.31958e+09 6.81726e+09 7.2491e+09 
7.09211e+09 6.57831e+09 6.73299e+09 7.0264e+09 7.19513e+09 6.90246e+09 6.80043e+09 6.91032e+09 7.03736e+09 
7.03869e+09 6.734e+09 6.71145e+09 6.94642e+09 7.4616e+09 6.98992e+09 7.07207e+09 7.26136e+09 7.35863e+09 
7.10656e+09 6.86517e+09 7.22067e+09 6.79206e+09 7.05388e+09 7.25802e+09 7.14062e+09 6.87321e+09 7.00269e+09 
6.86255e+09 7.06889e+09 7.1123e+09 6.90732e+09 7.01766e+09 7.34452e+09 7.0159e+09 6.83485e+09 6.75059e+09 
7.09582e+09 6.94026e+09 6.98933e+09 7.15193e+09 6.85795e+09 6.71697e+09 6.7851e+09 7.30664e+09 7.04447e+09 
6.98526e+09 6.95671e+09 7.44947e+09 7.38394e+09 7.02624e+09 7.05254e+09 6.99276e+09 6.9566e+09 7.31068e+09 
7.14519e+09 6.98195e+09 7.13515e+09 6.97095e+09 6.9425e+09 6.96635e+09 6.96316e+09 6.71543e+09 6.87672e+09 
6.91066e+09 6.80328e+09 7.37902e+09 7.23284e+09 7.3264e+09 6.76525e+09 6.93255e+09 7.10242e+09 7.23138e+09 
7.15739e+09 7.04295e+09 6.93903e+09 6.81741e+09 6.68005e+09 7.0218e+09 7.22255e+09 7.02384e+09 6.7922e+09 
7.21341e+09 7.30201e+09 7.30822e+09 6.93743e+09 7.17428e+09 7.29482e+09 7.05713e+09 6.90904e+09 6.82592e+09 
6.97358e+09 6.92107e+09 6.94779e+09 6.81714e+09 7.0786e+09 7.09743e+09 6.92724e+09 7.07834e+09 6.9415e+09 
6.87165e+09 6.8181e+09 6.81183e+09 6.83758e+09 7.05548e+09 7.84471e+09 6.85917e+09 6.76643e+09 6.79853e+09 
6.85364e+09 7.01389e+09 6.74466e+09 7.02645e+09 6.86595e+09 6.96058e+09 7.42661e+09 7.11618e+09 6.82258e+09 
7.26792e+09 7.1675e+09 7.23434e+09 7.01216e+09 7.07618e+09 6.82596e+09 6.78686e+09 6.75474e+09 7.29112e+09 
7.04097e+09 7.115e+09 6.82628e+09 6.90558e+09 6.81977e+09 7.07599e+09 6.81621e+09 6.85322e+09 6.68711e+09 
6.80249e+09 7.05779e+09 6.93019e+09 6.81326e+09 6.99093e+09 6.67149e+09 6.82045e+09 6.95492e+09 7.00685e+09 
7.4015e+09 6.86254e+09 6.89228e+09 7.07624e+09 6.93604e+09 6.83212e+09 6.86411e+09 7.39767e+09 7.3024e+09 
6.76349e+09 6.95818e+09 7.00912e+09 6.73201e+09 7.08665e+09 6.69406e+09 7.09059e+09 6.76691e+09 7.11988e+09 
6.90304e+09 6.66729e+09 6.98447e+09 7.37817e+09 6.95371e+09 6.68966e+09 6.76222e+09 6.91743e+09 6.9889e+09 
7.32125e+09 6.88045e+09 6.7332e+09 6.98108e+09 6.94745e+09 7.47391e+09 6.84758e+09 7.02107e+09 6.85638e+09 
6.98989e+09 7.22311e+09 7.27668e+09 7.15397e+09 6.95691e+09 6.88965e+09 6.69028e+09 6.8796e+09 6.8921e+09 
6.81415e+09 6.89968e+09 7.05582e+09 7.5223e+09 7.17271e+09 6.85563e+09 6.88122e+09 6.81503e+09 6.82588e+09 
6.90589e+09 6.95713e+09 6.87712e+09 6.7517e+09 6.93388e+09 7.19254e+09 6.82072e+09 6.95699e+09 6.94585e+09 
6.74212e+09 6.94434e+09 6.9017e+09 7.49351e+09 6.91657e+09 7.04515e+09 7.11985e+09 7.17928e+09 6.94634e+09 
6.78041e+09 6.89721e+09 7.02269e+09 7.0657e+09 6.95377e+09 7.06892e+09 6.67097e+09 7.03131e+09 6.98265e+09 
6.92535e+09 6.74641e+09 6.80794e+09 6.73619e+09 6.92338e+09 6.83039e+09 6.81159e+09 7.14473e+09 7.09867e+09 
6.88369e+09 6.6763e+09 6.78442e+09 6.73617e+09 7.15189e+09 6.91797e+09 6.78392e+09 7.21082e+09 7.29347e+09 
7.00638e+09 6.93279e+09 7.00879e+09 7.14679e+09 6.81463e+09 7.30205e+09 7.41484e+09 7.27075e+09 6.81562e+09 
6.78194e+09 7.02267e+09 6.97389e+09 6.9096e+09 6.65093e+09 6.87414e+09 6.77435e+09 6.92101e+09 6.86456e+09 
7.06741e+09 6.57343e+09 6.73928e+09 7.02755e+09 6.97577e+09 6.91193e+09 6.63692e+09 6.85102e+09 6.75608e+09 
6.98994e+09 7.02077e+09 7.00869e+09 6.96845e+09 6.94204e+09 7.03982e+09 7.24808e+09 7.19674e+09 7.41199e+09 
7.63396e+09 7.67438e+09 7.6192e+09 6.7067e+09 7.32099e+09 6.71614e+09 6.74661e+09 6.8718e+09 6.99383e+09 
6.96619e+09 7.18698e+09 6.7782e+09 6.87088e+09 7.09424e+09 7.35537e+09 6.68063e+09 7.03465e+09 6.9773e+09 
6.76854e+09 7.0638e+09 6.70164e+09 6.85329e+09 7.06261e+09 6.67071e+09 6.87514e+09 6.91323e+09 6.83826e+09 
7.10135e+09 7.09095e+09 7.23157e+09 7.33327e+09 7.14378e+09 7.01876e+09 6.8282e+09 6.82337e+09 6.74294e+09 
6.88077e+09 6.98544e+09 6.99426e+09 7.35297e+09 7.1463e+09 6.9693e+09 7.05924e+09 7.01669e+09 6.91636e+09 
6.85232e+09 7.15713e+09 7.15901e+09 6.92364e+09 6.92686e+09 6.76988e+09 6.83482e+09 6.92227e+09 6.84307e+09 
6.84253e+09 7.35505e+09 6.86788e+09 7.00441e+09 7.06751e+09 6.98884e+09 6.7753e+09 6.83266e+09 6.8822e+09 
7.1885e+09 6.7647e+09 6.89373e+09 6.77847e+09 6.73749e+09 6.99533e+09 7.13899e+09 7.24378e+09 7.10703e+09 
7.28412e+09 7.43149e+09 7.08597e+09 6.84567e+09 6.81043e+09 6.96764e+09 7.22758e+09 6.83718e+09 6.88363e+09 
7.03092e+09 7.14748e+09 6.81821e+09 6.73836e+09 6.68723e+09 6.94282e+09 6.9604e+09 7.12941e+09 7.05284e+09 
7.42494e+09 7.07773e+09 7.14281e+09 6.76866e+09 6.84536e+09 6.97071e+09 6.75493e+09 6.86056e+09 6.92088e+09 
6.83153e+09 7.42072e+09 6.97666e+09 6.99618e+09 7.12825e+09 6.82577e+09 6.90429e+09 7.24642e+09 6.93328e+09 
6.92825e+09 6.78965e+09 7.07311e+09 6.96206e+09 6.76139e+09 7.13164e+09 7.30739e+09 6.64022e+09 6.96893e+09 
6.73478e+09 6.87721e+09 7.08146e+09 6.96778e+09 6.93533e+09 6.95842e+09 7.00815e+09 7.05764e+09 6.99184e+09 
6.96026e+09 7.27925e+09 7.09669e+09 6.92828e+09 6.86329e+09 6.76095e+09 6.70576e+09 6.62532e+09 6.74385e+09 
7.24689e+09 6.79912e+09 6.86885e+09 6.75262e+09 7.02669e+09 6.87795e+09 7.00613e+09 7.11222e+09 6.87228e+09 
6.87843e+09 7.09565e+09 6.74585e+09 6.9346e+09 6.86386e+09 6.84062e+09 6.93296e+09 6.75168e+09 7.02454e+09 
7.01909e+09 6.77035e+09 6.94529e+09 6.76403e+09 6.86099e+09 6.92022e+09 7.05136e+09 6.97321e+09 6.75482e+09 
6.62697e+09 6.86322e+09 6.70235e+09 6.69245e+09 6.89713e+09 7.1855e+09 7.02272e+09 6.9666e+09 6.93154e+09 
7.02535e+09 6.96324e+09 6.91739e+09 6.9916e+09 7.05179e+09 6.94832e+09 6.8017e+09 7.04262e+09 6.88666e+09 
7.05785e+09 6.88665e+09 6.97341e+09 6.97658e+09 7.19924e+09 6.80405e+09 6.90014e+09 6.86157e+09 6.84979e+09 
6.75759e+09 6.76477e+09 7.10282e+09 6.91653e+09 6.69559e+09 6.85545e+09 6.82276e+09 6.81528e+09 6.85917e+09 
6.65019e+09 6.84713e+09 7.07716e+09 7.33265e+09 6.97377e+09 6.9798e+09 6.9058e+09 7.03676e+09 7.00951e+09 
6.74975e+09 6.67781e+09 6.94998e+09 7.04137e+09 6.99159e+09 6.97046e+09 6.80721e+09 6.95255e+09 6.831e+09 
7.0797e+09 7.03377e+09 7.4106e+09 7.12142e+09 6.74012e+09 7.0022e+09 6.91657e+09 6.8815e+09 6.86421e+09 
6.79412e+09 6.78004e+09 6.8032e+09 6.75559e+09 6.8411e+09 6.71285e+09 6.73666e+09 7.07015e+09 7.83983e+09 
6.88597e+09 6.93552e+09 7.00943e+09 7.35358e+09 6.84755e+09 7.17094e+09 6.78743e+09 6.82278e+09 6.97407e+09 
6.75366e+09 6.9098e+09 6.9174e+09 6.99765e+09 7.21586e+09 7.08791e+09 6.69327e+09 7.038e+09 6.93274e+09 
6.87803e+09 6.80231e+09 6.93169e+09 6.74262e+09 7.01015e+09 6.76436e+09 6.82386e+09 6.67408e+09 6.88977e+09 
6.97556e+09 6.72019e+09 6.91694e+09 6.89119e+09 7.13365e+09 7.01617e+09 6.88216e+09 6.71991e+09 7.35433e+09 
6.95487e+09 6.83762e+09 6.89014e+09 6.76476e+09 6.76021e+09 6.81666e+09 6.82324e+09 7.04408e+09 7.0893e+09 
6.61784e+09 7.08171e+09 6.68132e+09 6.8457e+09 6.82848e+09 6.77039e+09 6.95538e+09 6.88077e+09 6.9522e+09 
6.78798e+09 6.70856e+09 6.77298e+09 6.72484e+09 6.88345e+09 6.72177e+09 6.80375e+09 6.85914e+09 6.76413e+09 
6.82629e+09 7.08878e+09 6.84384e+09 6.83917e+09 6.84425e+09 6.8413e+09 6.81268e+09 6.88194e+09 6.83851e+09 
6.70453e+09 7.0272e+09 7.21432e+09 6.9454e+09 6.86635e+09 7.07817e+09 7.07445e+09 6.7329e+09 6.7289e+09 
7.13874e+09 6.81519e+09 6.8008e+09 6.97698e+09 6.99017e+09 7.05742e+09 7.18286e+09 6.95068e+09 6.88305e+09 
6.78035e+09 6.92473e+09 7.30144e+09 6.71642e+09 6.65841e+09 7.09518e+09 7.1257e+09 6.7148e+09 7.30794e+09 
7.41753e+09 7.18026e+09 7.11702e+09 7.11594e+09 7.07932e+09 6.99811e+09 7.40868e+09 7.22164e+09 6.94478e+09 
7.03122e+09 7.04663e+09 7.01455e+09 6.72777e+09 7.11164e+09 6.83813e+09 6.76811e+09 7.34417e+09 6.97567e+09 
7.30187e+09 7.3858e+09 7.49109e+09 7.0491e+09 7.201e+09 6.80582e+09 7.15228e+09 7.24565e+09 6.76516e+09 
6.81503e+09 7.27061e+09 6.89334e+09 6.95236e+09 6.97907e+09 7.3036e+09 6.83587e+09 7.19645e+09 6.8317e+09 
7.2055e+09 7.14927e+09 6.99624e+09 6.70826e+09 6.85547e+09 6.78201e+09 7.0244e+09 6.82427e+09 7.09059e+09 
7.07854e+09 6.97782e+09 6.80907e+09 6.80893e+09 7.08256e+09 7.06649e+09 7.02415e+09 7.1378e+09 7.12774e+09 
6.87971e+09 6.93892e+09 6.81809e+09 7.14789e+09 7.00478e+09 6.94346e+09 7.73876e+09 7.27901e+09 6.96296e+09 
6.92223e+09 6.97486e+09 7.21343e+09 6.88424e+09 7.36961e+09 7.05638e+09 6.64059e+09 7.17058e+09 7.09491e+09 
6.96284e+09 7.02309e+09 6.67035e+09 7.1023e+09 7.07679e+09 7.25232e+09 6.94436e+09 6.80116e+09 6.99315e+09 
7.07714e+09 7.14862e+09 7.15418e+09 6.89258e+09 7.05169e+09 6.78972e+09 7.05276e+09 7.06186e+09 7.05039e+09 
6.78458e+09 7.04353e+09 7.30358e+09 6.99088e+09 6.95402e+09 6.80726e+09 6.66797e+09 6.84865e+09 6.77329e+09 
6.77943e+09 6.98152e+09 6.81919e+09 7.35901e+09 6.85456e+09 6.7435e+09 7.06601e+09 7.06469e+09 7.1667e+09 
6.70616e+09 6.73966e+09 6.84244e+09 6.83681e+09 6.75e+09 6.71342e+09 6.86904e+09 6.88716e+09 6.90375e+09 
6.82191e+09 6.64039e+09 6.99471e+09 7.35779e+09 6.92062e+09 6.72419e+09 6.62922e+09 6.80268e+09 7.12316e+09 
6.84676e+09 7.06112e+09 6.93085e+09 6.77168e+09 7.17329e+09 6.77065e+09 6.84072e+09 7.04789e+09 7.10801e+09 
6.92857e+09 6.83428e+09 7.0689e+09 6.8314e+09 6.83386e+09 6.64279e+09 6.91342e+09 7.13941e+09 7.13967e+09 
6.87059e+09 6.84448e+09 6.97604e+09 7.07589e+09 7.13613e+09 7.03767e+09 6.85864e+09 6.68434e+09 6.80338e+09 
6.95719e+09 6.71594e+09 6.74935e+09 6.99631e+09 7.26622e+09 7.01917e+09 6.85918e+09 7.10585e+09 6.9704e+09 
7.05559e+09 6.91244e+09 6.96533e+09 7.08633e+09 6.61954e+09 6.59303e+09 6.75534e+09 6.85667e+09 6.60077e+09 
7.03822e+09 6.92351e+09 7.01738e+09 7.23862e+09 6.9479e+09 6.7558e+09 7.11927e+09 7.03947e+09 7.0928e+09 
7.17665e+09 7.08867e+09 6.8573e+09 6.83461e+09 6.94374e+09 6.91087e+09 6.9662e+09 6.78166e+09 7.20398e+09 
7.04443e+09 7.11452e+09 7.02884e+09 7.03966e+09 7.01726e+09 6.80091e+09 6.73643e+09 6.98038e+09 6.5806e+09 
6.86843e+09 7.08063e+09 6.76088e+09 6.76363e+09 6.91382e+09 6.86928e+09 7.09049e+09 7.03476e+09 6.95119e+09 
7.06721e+09 6.80718e+09 7.05061e+09 6.98625e+09 6.91945e+09 6.69742e+09 7.09484e+09 6.66689e+09 6.91587e+09 
6.88392e+09 6.80436e+09 6.81412e+09 6.66817e+09 7.01842e+09 6.73722e+09 6.81172e+09 6.76211e+09 6.7059e+09 
6.80269e+09 6.76169e+09 7.02438e+09 7.22603e+09 7.05433e+09 7.03437e+09 7.11631e+09 6.87456e+09 6.95505e+09 
6.71239e+09 6.72886e+09 7.01286e+09 6.95032e+09 6.67807e+09 6.77072e+09 6.55272e+09 6.66382e+09 7.01238e+09 
6.75815e+09 6.74353e+09 6.93353e+09 6.9033e+09 6.85888e+09 7.34861e+09 7.08169e+09 6.78647e+09 6.84763e+09 
6.9532e+09 6.92906e+09 6.88278e+09 7.04259e+09 7.02743e+09 6.76454e+09 7.0215e+09 6.91564e+09 6.8957e+09 
7.03255e+09 7.03205e+09 7.39696e+09 7.11431e+09 6.84877e+09 6.85142e+09 6.72233e+09 6.88113e+09 6.92039e+09 
6.84481e+09 6.76039e+09 6.70126e+09 7.00222e+09 6.97804e+09 7.05613e+09 7.10506e+09 6.74771e+09 6.78472e+09 
6.62988e+09 6.77487e+09 7.25304e+09 6.58845e+09 6.78974e+09 7.15001e+09 7.3079e+09 7.00888e+09 6.81835e+09 
7.1004e+09 7.05046e+09 7.01267e+09 6.97943e+09 7.11488e+09 6.67735e+09 6.76113e+09 6.70355e+09 6.81838e+09 
6.74589e+09 6.74454e+09 6.87561e+09 6.98609e+09 6.85481e+09 6.90229e+09 6.98411e+09 6.94873e+09 6.94525e+09 
6.86347e+09 6.68032e+09 6.63187e+09 6.88066e+09 6.86788e+09 6.60355e+09 6.77987e+09 7.05704e+09 6.68023e+09 
6.78864e+09 7.08478e+09 7.23272e+09 6.97427e+09 7.11914e+09 6.6718e+09 7.19241e+09 6.75846e+09 7.08107e+09 
6.9821e+09 6.76807e+09 6.78795e+09 6.91983e+09 7.10879e+09 6.89303e+09 7.1316e+09 7.02002e+09 6.80139e+09 
6.77183e+09 6.81854e+09 6.94772e+09 7.48149e+09 7.18476e+09 6.83742e+09 6.96063e+09 6.96905e+09 6.70931e+09 
7.14619e+09 7.02129e+09 6.75004e+09 6.78885e+09 7.00505e+09 6.67135e+09 6.8028e+09 6.89788e+09 6.80616e+09 
6.97645e+09 6.73193e+09 6.91472e+09 6.65598e+09 6.84598e+09 7.03722e+09 7.09876e+09 6.978e+09 7.16171e+09 
7.38955e+09 6.99874e+09 7.06273e+09 6.88895e+09 7.1854e+09 6.78125e+09 6.80149e+09 6.72285e+09 6.80167e+09 
7.09946e+09 6.74579e+09 6.95203e+09 6.98793e+09 7.0337e+09 6.80447e+09 6.94133e+09 6.80442e+09 6.97145e+09 
6.77838e+09 6.69851e+09 6.66731e+09 6.77799e+09 6.9934e+09 6.80104e+09 6.83543e+09 6.84203e+09 6.98291e+09 
6.61248e+09 6.56391e+09 6.82027e+09 7.04499e+09 7.05565e+09 6.99802e+09 7.03825e+09 6.80631e+09 7.02116e+09 
6.83402e+09 6.77339e+09 6.75955e+09 7.27443e+09 6.83075e+09 7.32474e+09 6.97342e+09 6.87673e+09 6.82285e+09 
6.84337e+09 7.19053e+09 6.75875e+09 6.88865e+09 6.92431e+09 6.66691e+09 6.7481e+09 6.83594e+09 7.07506e+09 
6.83758e+09 6.90834e+09 7.03003e+09 7.16685e+09 7.24425e+09 7.19427e+09 7.50012e+09 6.9253e+09 6.85037e+09 
6.85414e+09 7.0953e+09 6.88725e+09 6.90002e+09 6.83437e+09 7.10476e+09 6.8983e+09 6.95472e+09 6.76718e+09 
6.83041e+09 7.18491e+09 6.90113e+09 6.71343e+09 6.90117e+09 7.08052e+09 6.91611e+09 6.75431e+09 6.76338e+09 
6.89947e+09 6.68638e+09 6.8564e+09 6.99112e+09 6.87159e+09 6.87538e+09 6.89211e+09 6.97867e+09 7.42261e+09 
7.14038e+09 7.44617e+09 7.27509e+09 6.82539e+09 6.86904e+09 7.16024e+09 6.95503e+09 7.22677e+09 6.87371e+09 
6.98104e+09 7.13691e+09 7.28902e+09 6.63823e+09 6.7793e+09 7.0743e+09 6.89845e+09 7.03711e+09 6.80795e+09 
6.76524e+09 6.7105e+09 6.82068e+09 7.21179e+09 6.77531e+09 6.98091e+09 7.01695e+09 6.81446e+09 6.72506e+09 
6.77737e+09 6.64036e+09 6.67226e+09 6.55557e+09 6.67034e+09 6.90474e+09 6.96136e+09 6.83244e+09 7.27287e+09 
6.8466e+09 6.91004e+09 7.00129e+09 6.95716e+09 6.84304e+09 6.94461e+09 6.85205e+09 7.34386e+09 7.34217e+09 
6.93282e+09 7.07125e+09 6.76233e+09 6.96851e+09 6.70943e+09 7.04394e+09 6.75062e+09 7.04242e+09 6.84422e+09 
6.73695e+09 6.82626e+09 6.77866e+09 6.7562e+09 6.65638e+09 6.81331e+09 6.95706e+09 6.99154e+09 7.12367e+09 
6.81933e+09 7.01097e+09 7.03853e+09 6.74893e+09 7.00657e+09 6.97421e+09 7.28487e+09 6.95911e+09 7.02156e+09 
6.87791e+09 7.23537e+09 6.87842e+09 6.90043e+09 6.96537e+09 6.81229e+09 6.86702e+09 6.85949e+09 6.79088e+09 
6.85217e+09 6.94278e+09 7.01335e+09 7.05206e+09 7.05425e+09 6.89573e+09 6.64038e+09 6.78119e+09 6.76868e+09 
7.0154e+09 6.79733e+09 7.38194e+09 6.77946e+09 6.84749e+09 7.42353e+09 7.53295e+09 7.29895e+09 6.81967e+09 
6.73674e+09 6.82968e+09 7.06019e+09 6.93365e+09 7.46633e+09 6.74862e+09 7.0676e+09 7.07696e+09 6.94113e+09 
6.6368e+09 6.76401e+09 6.73451e+09 6.79788e+09 6.87944e+09 6.61372e+09 7.01851e+09 7.03901e+09 6.88394e+09 
6.77494e+09 6.84946e+09 6.78586e+09 6.89934e+09 6.85821e+09 6.77028e+09 6.67423e+09 6.88414e+09 6.89119e+09 
6.87666e+09 7.34429e+09 7.31166e+09 7.18006e+09 6.97233e+09 7.34312e+09 6.89756e+09 7.40154e+09 7.06253e+09 
6.78499e+09 6.72808e+09 7.1888e+09 7.38882e+09 6.78536e+09 6.67526e+09 6.89372e+09 6.92806e+09 6.929e+09 
6.72849e+09 6.83589e+09 6.79065e+09 6.79935e+09 6.82688e+09 7.24224e+09 7.17529e+09 6.96603e+09 6.5654e+09 
6.84675e+09 6.76808e+09 6.73482e+09 6.91486e+09 6.80128e+09 7.18604e+09 6.90637e+09 6.80914e+09 6.90164e+09 
6.82497e+09 6.87539e+09 6.84935e+09 6.84032e+09 7.34544e+09 7.24218e+09 7.03145e+09 7.14164e+09 7.26898e+09 
7.12818e+09 6.91507e+09 7.04963e+09 6.83155e+09 7.00237e+09 7.0086e+09 7.01048e+09 7.09241e+09 6.77188e+09 
6.96362e+09 7.1965e+09 6.7297e+09 6.83371e+09 6.87035e+09 6.73704e+09 6.71193e+09 6.73998e+09 6.80761e+09 
6.81214e+09 7.34326e+09 6.6909e+09 7.10241e+09 7.45086e+09 6.80194e+09 7.01304e+09 7.14322e+09 6.83235e+09 
7.0244e+09 7.00344e+09 7.35673e+09 6.84836e+09 6.92674e+09 6.79167e+09 6.93819e+09 6.94809e+09 6.60645e+09 
6.69028e+09 6.76197e+09 6.729e+09 6.75301e+09 6.81947e+09 7.25818e+09 6.76207e+09 6.79391e+09 6.77035e+09 
6.8135e+09 6.94952e+09 6.79237e+09 6.70896e+09 6.98129e+09 7.37738e+09 7.05716e+09 6.97736e+09 7.38904e+09 
7.24362e+09 6.90217e+09 6.98701e+09 6.91825e+09 6.90102e+09 6.7799e+09 7.19054e+09 6.93351e+09 7.09662e+09 
6.6488e+09 7.23024e+09 7.23067e+09 6.76492e+09 6.6998e+09 6.64693e+09 6.7497e+09 6.71161e+09 6.95968e+09 
7.10873e+09 6.91331e+09 6.87863e+09 6.80796e+09 6.87917e+09 6.88501e+09 6.87379e+09 6.75551e+09 6.79069e+09 
6.76219e+09 7.0101e+09 6.88708e+09 7.25395e+09 7.57951e+09 7.08862e+09 7.31709e+09 6.83398e+09 6.86694e+09 
6.82867e+09 6.69243e+09 7.26915e+09 7.20858e+09 6.87179e+09 6.85686e+09 6.86453e+09 6.78217e+09 6.753e+09 
6.73258e+09 6.61413e+09 6.8128e+09 7.06216e+09 6.72516e+09 6.88256e+09 7.18172e+09 7.1657e+09 7.08459e+09 
6.60846e+09 6.70241e+09 6.92301e+09 6.88153e+09 7.18334e+09 6.81559e+09 7.10835e+09 6.63073e+09 6.87031e+09 
6.74981e+09 6.79676e+09 7.00205e+09 6.93907e+09 6.83356e+09 6.69427e+09 7.07988e+09 6.94182e+09 6.96192e+09 
6.99945e+09 6.90615e+09 7.17025e+09 7.07068e+09 6.69898e+09 6.66122e+09 6.94428e+09 6.78726e+09 6.84637e+09 
7.21523e+09 6.6746e+09 7.27765e+09 6.82126e+09 6.88072e+09 7.06948e+09 7.03024e+09 6.79693e+09 6.54901e+09 
7.52327e+09 6.88475e+09 7.03289e+09 7.10889e+09 7.05816e+09 7.24534e+09 7.08943e+09 7.11511e+09 6.78356e+09 
6.89397e+09 6.90835e+09 6.91141e+09 7.016e+09 6.89436e+09 6.92552e+09 6.83489e+09 7.08305e+09 6.86471e+09 
6.72764e+09 6.59495e+09 6.86473e+09 7.04101e+09 6.98256e+09 6.95076e+09 7.02884e+09 7.14142e+09 7.22092e+09 
6.95546e+09 7.2362e+09 6.6931e+09 7.08453e+09 6.87752e+09 6.61461e+09 6.73003e+09 6.86907e+09 6.81389e+09 
7.3372e+09 7.25335e+09 6.86772e+09 6.9691e+09 6.92596e+09 7.04456e+09 6.72515e+09 6.8856e+09 6.71871e+09 
6.85391e+09 7.27508e+09 6.82308e+09 6.63379e+09 6.82591e+09 6.68306e+09 6.61317e+09 6.97139e+09 6.98693e+09 
6.80479e+09 6.96881e+09 7.22795e+09 6.81655e+09 6.92078e+09 6.84247e+09 6.81352e+09 6.78565e+09 7.19276e+09 
6.8445e+09 6.97694e+09 6.58889e+09 7.17574e+09 6.86341e+09 7.03724e+09 7.00334e+09 6.86792e+09 6.98571e+09 
6.85548e+09 7.21145e+09 6.86178e+09 6.80794e+09 6.78161e+09 6.97649e+09 6.84238e+09 6.79687e+09 6.72872e+09 
6.55597e+09 6.85456e+09 6.76881e+09 6.57023e+09 6.74677e+09 6.92079e+09 6.9858e+09 6.92609e+09 7.13119e+09 
6.89754e+09 6.7069e+09 6.66978e+09 6.9702e+09 6.75089e+09 6.97725e+09 7.14185e+09 7.27962e+09 7.08304e+09 
6.72796e+09 6.79635e+09 6.60447e+09 6.89291e+09 6.83376e+09 7.52727e+09 6.84451e+09 6.7947e+09 6.96137e+09 
6.88836e+09 7.0345e+09 7.14559e+09 6.94615e+09 7.0427e+09 6.89941e+09 7.04325e+09 6.63835e+09 7.065e+09 
6.90752e+09 6.9207e+09 6.82462e+09 6.95021e+09 7.49293e+09 7.04397e+09 7.05454e+09 7.04462e+09 7.15799e+09 
7.05875e+09 6.71861e+09 7.14373e+09 7.15414e+09 6.92742e+09 6.75058e+09 6.86927e+09 6.94409e+09 7.14772e+09 
7.00951e+09 7.27532e+09 7.44726e+09 6.67732e+09 6.71921e+09 6.88795e+09 7.0418e+09 6.74077e+09 6.98946e+09 
7.2107e+09 6.88937e+09 6.72151e+09 6.99515e+09 6.7481e+09 6.92172e+09 6.90789e+09 7.02241e+09 7.1605e+09 
6.92518e+09 6.97491e+09 7.22111e+09 6.91524e+09 7.02516e+09 7.28792e+09 6.94328e+09 6.7697e+09 6.97163e+09 
6.98516e+09 6.75176e+09 6.90966e+09 6.90756e+09 6.80247e+09 6.87339e+09 7.18302e+09 6.86667e+09 6.86227e+09 
6.74843e+09 7.16722e+09 6.66105e+09 7.07614e+09 6.75723e+09 6.7384e+09 6.84033e+09 6.72433e+09 6.94316e+09 
6.78006e+09 6.98058e+09 7.0209e+09 7.28786e+09 7.05714e+09 6.85213e+09 7.36954e+09 7.13707e+09 6.65996e+09 
6.82191e+09 7.03853e+09 6.87992e+09 6.7082e+09 6.80587e+09 7.06998e+09 6.87722e+09 6.66255e+09 6.65737e+09 
6.74394e+09 6.97339e+09 6.98863e+09 6.87809e+09 6.69381e+09 6.58538e+09 6.75636e+09 6.5852e+09 6.79458e+09 
6.7415e+09 6.78124e+09 6.72436e+09 6.92831e+09 6.90666e+09 6.73664e+09 6.95521e+09 6.71193e+09 7.19306e+09 
7.36852e+09 6.76517e+09 6.84239e+09 6.77088e+09 6.74168e+09 6.82617e+09 6.93483e+09 6.66414e+09 6.73614e+09 
7.12172e+09 6.99597e+09 6.91084e+09 6.80438e+09 6.54361e+09 6.64777e+09 6.82131e+09 7.37498e+09 6.74373e+09 
6.85335e+09 6.84096e+09 6.98692e+09 6.92216e+09 7.49337e+09 7.25772e+09 7.14482e+09 7.00754e+09 6.98986e+09 
6.87615e+09 6.97683e+09 6.79868e+09 7.03229e+09 6.72785e+09 6.79882e+09 7.07339e+09 7.04775e+09 7.00663e+09 
6.82604e+09 6.98386e+09 7.11187e+09 7.28247e+09 7.00027e+09 7.03003e+09 6.54126e+09 6.83668e+09 6.8964e+09 
6.62298e+09 6.80828e+09 6.76601e+09 7.13817e+09 6.77213e+09 6.88753e+09 6.84467e+09 7.1272e+09 6.70647e+09 
6.7992e+09 6.96445e+09 7.02426e+09 7.11143e+09 6.7997e+09 6.95156e+09 6.97777e+09 7.08575e+09 7.31144e+09 
7.25222e+09 6.99756e+09 6.91147e+09 6.82241e+09 6.97902e+09 6.61584e+09 6.9224e+09 6.98205e+09 6.91864e+09 
7.2337e+09 7.10324e+09 6.68048e+09 7.00385e+09 6.81756e+09 6.77316e+09 7.08871e+09 6.77993e+09 7.35257e+09 
6.70351e+09 6.77409e+09 6.60451e+09 7.07092e+09 6.74085e+09 7.16534e+09 7.00107e+09 6.91557e+09 7.10789e+09 
6.87771e+09 6.71699e+09 6.71028e+09 6.89853e+09 6.90128e+09 6.79974e+09 6.90376e+09 6.72463e+09 7.09974e+09 
6.99794e+09 6.78207e+09 6.87175e+09 6.91091e+09 6.68864e+09 6.87617e+09 6.68641e+09 6.8553e+09 7.01477e+09 
6.91187e+09 6.80769e+09 6.8662e+09 6.77259e+09 6.95607e+09 6.89026e+09 7.12363e+09 6.82284e+09 6.85988e+09 
6.76059e+09 6.8791e+09 6.92529e+09 6.67942e+09 6.65948e+09 6.65454e+09 6.73366e+09 6.6501e+09 6.97762e+09 
7.09038e+09 6.97405e+09 6.82214e+09 6.88634e+09 6.83462e+09 6.81186e+09 6.45552e+09 6.71927e+09 7.06738e+09 
7.29731e+09 7.07507e+09 6.84771e+09 6.90956e+09 6.97452e+09 6.87011e+09 6.61761e+09 6.91229e+09 6.79982e+09 
6.90618e+09 7.2227e+09 6.83074e+09 6.62821e+09 6.87159e+09 6.92574e+09 6.81568e+09 7.17956e+09 7.02254e+09 
6.86662e+09 7.06516e+09 7.0387e+09 6.85967e+09 6.70965e+09 6.83225e+09 6.83009e+09 6.89021e+09 6.94296e+09 
6.75243e+09 6.85959e+09 6.84657e+09 7.04613e+09 7.13081e+09 7.17418e+09 7.00156e+09 6.68421e+09 6.89729e+09 
6.83077e+09 6.81728e+09 6.62836e+09 7.15555e+09 7.08596e+09 6.86955e+09 6.76833e+09 6.80417e+09 6.82285e+09 
6.75971e+09 6.84176e+09 6.88604e+09 7.03014e+09 6.85102e+09 6.92903e+09 6.91427e+09 7.0964e+09 7.21146e+09 
6.88511e+09 6.69321e+09 6.94424e+09 7.11704e+09 6.93483e+09 6.86761e+09 6.71734e+09 6.72066e+09 7.02114e+09 
7.10779e+09 7.23424e+09 6.71578e+09 6.67542e+09 6.82197e+09 6.87448e+09 6.74184e+09 6.89475e+09 6.93042e+09 
6.87456e+09 6.92396e+09 6.96355e+09 6.99219e+09 7.00165e+09 6.95076e+09 6.91795e+09 6.74989e+09 7.06901e+09 
6.95866e+09 7.23893e+09 7.0674e+09 7.02066e+09 6.96909e+09 6.70274e+09 6.80419e+09 6.87589e+09 7.21901e+09 
6.66372e+09 6.977e+09 7.06561e+09 6.93425e+09 6.88267e+09 6.50818e+09 6.81805e+09 6.69761e+09 6.81129e+09 
6.92681e+09 7.30176e+09 6.81807e+09 6.9144e+09 6.96845e+09 6.84424e+09 7.38825e+09 6.75171e+09 6.78832e+09 
6.82134e+09 7.07317e+09 6.86419e+09 7.03141e+09 6.99812e+09 6.91808e+09 6.91078e+09 7.01728e+09 6.794e+09 
6.78935e+09 6.9008e+09 7.10148e+09 6.99582e+09 6.77818e+09 6.93697e+09 6.70999e+09 6.79529e+09 6.61609e+09 
6.73654e+09 6.96436e+09 7.05361e+09 6.88571e+09 6.647e+09 6.76529e+09 6.89546e+09 7.00467e+09 6.8909e+09 
6.79059e+09 7.06669e+09 6.80329e+09 6.84348e+09 6.69382e+09 6.75011e+09 7.01756e+09 6.93776e+09 6.86401e+09 
6.67742e+09 6.89672e+09 6.88495e+09 6.76713e+09 6.84284e+09 7.15446e+09 6.72482e+09 6.88384e+09 6.60972e+09 
6.87515e+09 6.84635e+09 7.21669e+09 6.98718e+09 6.71991e+09 6.89291e+09 6.89892e+09 6.93951e+09 6.62059e+09 
6.57445e+09 6.65801e+09 6.66208e+09 6.73956e+09 7.04104e+09 6.97925e+09 6.75372e+09 6.55569e+09 6.99527e+09 
6.83068e+09 7.01608e+09 6.56834e+09 7.1943e+09 7.0232e+09 7.1504e+09 7.02852e+09 6.83265e+09 6.64974e+09 
6.81909e+09 6.9302e+09 6.98117e+09 6.97131e+09 6.77471e+09 7.01024e+09 6.75496e+09 7.1213e+09 6.76264e+09 
7.11804e+09 6.97614e+09 6.99054e+09 6.89005e+09 6.57454e+09 6.76038e+09 6.64886e+09 6.67403e+09 6.99752e+09 
6.57806e+09 6.83948e+09 6.77519e+09 6.84494e+09 6.73408e+09 6.52835e+09 6.79256e+09 6.89287e+09 7.2041e+09 
6.93367e+09 6.93017e+09 7.168e+09 6.73813e+09 6.66369e+09 6.71567e+09 6.61331e+09 6.79125e+09 6.91085e+09 
6.89588e+09 7.10243e+09 7.03779e+09 6.98355e+09 6.79058e+09 6.87123e+09 6.74539e+09 6.79477e+09 7.1337e+09 
6.65465e+09 6.56494e+09 6.96863e+09 7.10633e+09 6.71659e+09 6.73911e+09 6.88141e+09 6.66118e+09 6.92741e+09 
6.75182e+09 6.67515e+09 6.53343e+09 6.48244e+09 6.69121e+09 6.63003e+09 6.64731e+09 6.65365e+09 6.71365e+09 
6.65046e+09 6.90908e+09 6.78595e+09 6.91985e+09 6.79678e+09 6.77005e+09 6.79026e+09 7.06297e+09 6.81821e+09 
6.78776e+09 6.6672e+09 6.57764e+09 6.74357e+09 6.78122e+09 6.4786e+09 6.80135e+09 6.64071e+09 6.75628e+09 
7.00165e+09 7.06207e+09 6.6873e+09 6.70922e+09 7.00415e+09 6.86448e+09 6.78859e+09 6.86793e+09 6.84822e+09 
6.86143e+09 6.78227e+09 6.94192e+09 6.68132e+09 6.69021e+09 6.8758e+09 6.62961e+09 6.86593e+09 6.92605e+09 
6.82735e+09 6.70208e+09 7.04256e+09 6.97175e+09 6.77662e+09 6.85371e+09 6.72151e+09 6.95891e+09 6.59246e+09 
6.77521e+09 6.52025e+09 6.36914e+09 6.81945e+09 7.00694e+09 6.96625e+09 6.59141e+09 6.59147e+09 6.8498e+09 
6.75438e+09 6.79214e+09 6.81378e+09 6.63528e+09 6.75012e+09 7.11584e+09 7.0857e+09 6.99419e+09 6.68728e+09 
6.87943e+09 6.66128e+09 6.80168e+09 6.61263e+09 6.98766e+09 7.07545e+09 6.77379e+09 6.97758e+09 6.84192e+09 
7.23902e+09 6.96827e+09 6.89858e+09 7.07207e+09 7.09736e+09 6.64908e+09 6.52113e+09 6.66424e+09 6.65282e+09 
6.90498e+09 6.76326e+09 6.58925e+09 6.56235e+09 6.67953e+09 6.91969e+09 6.90978e+09 6.73591e+09 6.85716e+09 
6.84212e+09 6.6931e+09 7.04105e+09 6.89482e+09 7.10917e+09 6.56802e+09 6.68919e+09 6.77179e+09 6.58624e+09 
6.74685e+09 7.04484e+09 6.6667e+09 7.01438e+09 6.97525e+09 7.20405e+09 7.16649e+09 7.11088e+09 6.82799e+09 
6.79848e+09 6.74741e+09 6.8115e+09 6.67586e+09 6.78688e+09 7.14436e+09 6.795e+09 6.52279e+09 6.48666e+09 
7.0928e+09 6.89588e+09 7.0945e+09 7.01962e+09 6.77976e+09 6.63646e+09 7.07362e+09 6.72002e+09 6.72356e+09 
7.06612e+09 6.89365e+09 6.5534e+09 6.83459e+09 6.95367e+09 6.86775e+09 6.76303e+09 6.78417e+09 6.99512e+09 
7.17499e+09 7.20168e+09 6.86656e+09 6.75932e+09 6.57679e+09 6.49404e+09 6.57612e+09 6.89572e+09 6.60965e+09 
6.97121e+09 7.33129e+09 6.86549e+09 7.02307e+09 7.15843e+09 6.91663e+09 6.82185e+09 6.7734e+09 7.28898e+09 
6.8072e+09 6.99962e+09 6.8018e+09 7.05039e+09 7.20451e+09 7.0888e+09 6.93417e+09 7.00246e+09 6.75597e+09 
6.87406e+09 6.72253e+09 6.72812e+09 7.06395e+09 7.02221e+09 7.06449e+09 7.13903e+09 6.97222e+09 6.8697e+09 
6.58784e+09 6.63525e+09 6.69393e+09 6.56164e+09 6.59042e+09 6.83633e+09 6.76749e+09 6.92293e+09 7.16636e+09 
6.79367e+09 6.72947e+09 6.76938e+09 6.90383e+09 6.84206e+09 6.4393e+09 6.82072e+09 6.69979e+09 6.8444e+09 
6.84671e+09 6.67082e+09 6.76445e+09 7.0691e+09 6.87056e+09 6.9257e+09 6.90023e+09 6.79695e+09 6.62032e+09 
6.87221e+09 7.08324e+09 6.86617e+09 6.90579e+09 6.71321e+09 6.85529e+09 7.0418e+09 6.71898e+09 6.60387e+09 
6.48108e+09 6.49679e+09 6.78765e+09 6.68387e+09 6.6287e+09 6.73045e+09 7.10243e+09 7.03074e+09 6.83305e+09 
7.00886e+09 6.96927e+09 6.97789e+09 6.69584e+09 6.93402e+09 6.68615e+09 6.89548e+09 6.84461e+09 6.68424e+09 
6.73098e+09 6.65036e+09 6.86095e+09 6.77836e+09 6.97648e+09 7.59234e+09 6.77887e+09 6.84835e+09 7.0072e+09 
6.94393e+09 6.69911e+09 6.6766e+09 6.7335e+09 6.82541e+09 6.7445e+09 6.63622e+09 7.31407e+09 6.66776e+09 