# vtk DataFile Version 3.0
vtk output
ASCII
DATASET RECTILINEAR_GRID
FIELD FieldData 4
MeshName 1 1 string
mesh

CYCLE 1 1 int
10 
TIME 1 1 double
10 
avtOriginalBounds 1 6 double
0 1.95312 1.40381 1.64795 0 1.95312 
DIMENSIONS 33 5 33
X_COORDINATES 33 double
0 0.0610352 0.12207 0.183105 0.244141 0.305176 0.366211 0.427246 0.488281 
0.549316 0.610352 0.671387 0.732422 0.793457 0.854492 0.915527 0.976562 1.0376 
1.09863 1.15967 1.2207 1.28174 1.34277 1.40381 1.46484 1.52588 1.58691 
1.64795 1.70898 1.77002 1.83105 1.89209 1.95312 
Y_COORDINATES 5 double
1.40381 1.46484 1.52588 1.58691 1.64795 
Z_COORDINATES 33 double
0 0.0610352 0.12207 0.183105 0.244141 0.305176 0.366211 0.427246 0.488281 
0.549316 0.610352 0.671387 0.732422 0.793457 0.854492 0.915527 0.976562 1.0376 
1.09863 1.15967 1.2207 1.28174 1.34277 1.40381 1.46484 1.52588 1.58691 
1.64795 1.70898 1.77002 1.83105 1.89209 1.95312 
CELL_DATA 4096
SCALARS simdata double
LOOKUP_TABLE default
6.89539e+09 6.7898e+09 6.60267e+09 6.534e+09 6.80869e+09 6.55568e+09 6.51265e+09 6.83785e+09 6.83305e+09 
6.79974e+09 6.80514e+09 7.23643e+09 7.06747e+09 7.39898e+09 7.44483e+09 7.4535e+09 7.09097e+09 7.04443e+09 
7.04891e+09 6.97279e+09 6.93204e+09 7.33042e+09 7.27726e+09 6.96561e+09 6.9529e+09 6.76697e+09 7.23744e+09 
6.94783e+09 7.33904e+09 7.13884e+09 6.93786e+09 6.96779e+09 6.85335e+09 7.09216e+09 6.68192e+09 6.79762e+09 
6.73914e+09 6.73049e+09 6.81504e+09 6.86984e+09 6.66073e+09 6.76215e+09 6.6491e+09 6.87894e+09 6.99308e+09 
7.07122e+09 7.2897e+09 7.22328e+09 7.36432e+09 6.89475e+09 6.80917e+09 6.93271e+09 6.82923e+09 6.93782e+09 
6.8405e+09 7.10835e+09 6.97608e+09 6.89943e+09 6.90703e+09 7.39702e+09 7.37204e+09 7.08078e+09 6.97209e+09 
7.02723e+09 6.64665e+09 6.74523e+09 6.68777e+09 6.64534e+09 6.83464e+09 6.79463e+09 6.83379e+09 7.16692e+09 
7.23795e+09 7.04667e+09 7.03212e+09 6.75486e+09 6.78334e+09 6.99734e+09 7.15958e+09 7.01521e+09 7.09562e+09 
6.85307e+09 6.94829e+09 7.17465e+09 7.32087e+09 7.07371e+09 6.78858e+09 6.82968e+09 6.95472e+09 6.81069e+09 
7.18385e+09 7.14343e+09 7.34997e+09 7.04768e+09 7.1126e+09 7.16358e+09 6.92798e+09 7.20428e+09 6.95792e+09 
6.74881e+09 6.76241e+09 6.93637e+09 7.07593e+09 6.9396e+09 7.15029e+09 6.86632e+09 6.88807e+09 6.99608e+09 
6.88299e+09 7.07977e+09 7.10359e+09 7.12836e+09 7.12764e+09 7.03801e+09 7.13391e+09 6.75474e+09 7.12165e+09 
6.94826e+09 7.06635e+09 7.10208e+09 6.84999e+09 6.77992e+09 7.07055e+09 6.89506e+09 6.86615e+09 7.13694e+09 
6.83878e+09 7.02195e+09 6.77171e+09 6.49841e+09 6.70592e+09 6.6388e+09 6.88064e+09 6.85623e+09 6.87239e+09 
6.87609e+09 6.71679e+09 6.85031e+09 6.7623e+09 7.01052e+09 6.79857e+09 7.18362e+09 7.1657e+09 7.00684e+09 
7.25661e+09 6.91808e+09 6.89395e+09 6.99922e+09 6.91029e+09 7.12814e+09 6.97484e+09 6.826e+09 6.76194e+09 
6.74206e+09 7.28936e+09 6.81556e+09 7.00906e+09 6.69937e+09 6.65202e+09 6.63278e+09 6.85767e+09 7.05992e+09 
6.83316e+09 6.55699e+09 6.52975e+09 6.54062e+09 6.8445e+09 6.67779e+09 6.87477e+09 6.8981e+09 7.0216e+09 
6.75379e+09 7.03469e+09 7.23499e+09 7.67595e+09 7.19386e+09 7.17879e+09 6.98089e+09 6.98407e+09 6.7295e+09 
6.99209e+09 6.9668e+09 6.91583e+09 6.86991e+09 6.79119e+09 6.91552e+09 7.11545e+09 7.33772e+09 7.42898e+09 
7.12045e+09 7.22024e+09 6.96462e+09 6.7251e+09 7.13807e+09 6.76667e+09 6.79189e+09 6.66749e+09 6.67482e+09 
6.71734e+09 6.89964e+09 6.65195e+09 7.11185e+09 6.78704e+09 6.70662e+09 6.66145e+09 7.03401e+09 7.37688e+09 
7.02104e+09 6.97061e+09 6.99492e+09 6.94738e+09 7.01633e+09 7.01464e+09 6.90625e+09 7.21373e+09 6.84509e+09 
7.10344e+09 7.00679e+09 6.86047e+09 6.95324e+09 7.3485e+09 7.08141e+09 6.97487e+09 7.36812e+09 7.07878e+09 
7.10082e+09 7.091e+09 6.74328e+09 6.93079e+09 6.91705e+09 6.90882e+09 6.67618e+09 6.75408e+09 7.0646e+09 
7.29286e+09 6.87344e+09 6.78782e+09 6.8566e+09 6.94383e+09 6.79193e+09 6.87012e+09 7.1318e+09 6.84237e+09 
6.87663e+09 7.01347e+09 7.15033e+09 6.97173e+09 7.1189e+09 7.01396e+09 6.82393e+09 6.79269e+09 6.70995e+09 
6.87978e+09 6.99133e+09 7.15121e+09 7.10442e+09 6.79684e+09 6.89671e+09 7.08125e+09 6.52481e+09 6.6226e+09 
6.86749e+09 6.89499e+09 7.11556e+09 7.09077e+09 6.91593e+09 6.81951e+09 7.15365e+09 6.78331e+09 7.06272e+09 
6.98618e+09 7.54621e+09 7.03154e+09 6.83294e+09 6.66747e+09 6.83629e+09 7.16133e+09 6.9964e+09 7.11198e+09 
6.69629e+09 6.95516e+09 7.08896e+09 7.19987e+09 6.87975e+09 6.96905e+09 6.91897e+09 6.61671e+09 6.65054e+09 
6.77389e+09 6.87763e+09 6.93215e+09 6.64202e+09 6.68929e+09 6.56633e+09 6.94591e+09 6.82643e+09 6.94446e+09 
6.80442e+09 6.86159e+09 6.94538e+09 6.89312e+09 6.78971e+09 7.31148e+09 7.52515e+09 7.03465e+09 6.62689e+09 
6.86947e+09 6.86821e+09 6.93685e+09 7.05016e+09 6.98916e+09 6.79548e+09 6.83044e+09 7.01743e+09 7.01433e+09 
7.18001e+09 7.49505e+09 7.00506e+09 7.10958e+09 6.68999e+09 6.76553e+09 6.85711e+09 6.81318e+09 6.76617e+09 
6.76685e+09 6.86247e+09 6.88867e+09 7.15507e+09 7.15568e+09 6.95131e+09 7.01396e+09 6.58794e+09 7.09196e+09 
6.80748e+09 7.1866e+09 7.14634e+09 6.88083e+09 7.04572e+09 6.85982e+09 6.87637e+09 7.19532e+09 7.00528e+09 
6.95447e+09 7.29409e+09 7.0022e+09 6.93308e+09 7.1539e+09 6.88003e+09 7.59782e+09 7.18029e+09 6.85506e+09 
7.19037e+09 6.74989e+09 7.06925e+09 6.7354e+09 6.90862e+09 7.09445e+09 6.53498e+09 7.09117e+09 6.9928e+09 
6.68386e+09 7.14029e+09 6.91414e+09 6.7626e+09 6.97508e+09 6.94357e+09 7.01989e+09 6.8131e+09 6.84568e+09 
6.9702e+09 7.15237e+09 7.05923e+09 6.88017e+09 6.92791e+09 6.98643e+09 7.65544e+09 7.12063e+09 7.13918e+09 
6.90507e+09 6.88298e+09 6.97813e+09 7.21092e+09 7.28687e+09 7.19705e+09 7.09986e+09 6.95455e+09 6.67255e+09 
7.00841e+09 6.88165e+09 6.73318e+09 7.09843e+09 7.12467e+09 6.76038e+09 6.9299e+09 6.86965e+09 6.81274e+09 
6.92657e+09 7.00228e+09 7.07114e+09 7.0015e+09 6.73891e+09 6.7228e+09 7.1438e+09 6.91916e+09 7.02611e+09 
6.94652e+09 7.01787e+09 6.72283e+09 6.78886e+09 6.9015e+09 7.18645e+09 6.8805e+09 6.97016e+09 7.05069e+09 
6.71851e+09 6.81132e+09 6.86752e+09 6.81485e+09 6.78333e+09 6.86858e+09 6.76057e+09 6.88904e+09 7.03431e+09 
7.23213e+09 6.94779e+09 7.24666e+09 6.92178e+09 7.00746e+09 6.79678e+09 6.67408e+09 6.78159e+09 7.47048e+09 
6.93972e+09 6.7249e+09 7.0039e+09 7.08915e+09 6.86158e+09 6.89188e+09 6.84868e+09 6.7807e+09 6.81911e+09 
6.68103e+09 7.1966e+09 7.14219e+09 7.16466e+09 7.03708e+09 6.88934e+09 6.87861e+09 6.79125e+09 6.90594e+09 
6.95742e+09 6.91523e+09 6.91762e+09 6.61876e+09 6.74251e+09 7.04424e+09 6.78571e+09 7.12505e+09 6.87855e+09 
6.73801e+09 6.78645e+09 6.71484e+09 6.86869e+09 7.04259e+09 7.13688e+09 6.86524e+09 6.92077e+09 6.85425e+09 
7.08911e+09 7.00263e+09 6.95108e+09 7.04941e+09 6.82429e+09 7.17284e+09 7.30124e+09 7.37934e+09 7.35721e+09 
6.98926e+09 7.04053e+09 7.03861e+09 6.77027e+09 7.11868e+09 7.02912e+09 6.91787e+09 6.98504e+09 6.8444e+09 
6.62738e+09 6.84093e+09 6.70011e+09 6.90446e+09 7.50296e+09 6.82508e+09 6.95005e+09 7.06215e+09 7.03941e+09 
6.98238e+09 7.01414e+09 7.11559e+09 7.10568e+09 7.0791e+09 7.11511e+09 6.81997e+09 7.17471e+09 7.70475e+09 
6.92138e+09 7.07781e+09 7.32166e+09 7.09351e+09 7.12757e+09 7.54749e+09 6.87478e+09 6.98464e+09 7.24857e+09 
6.86954e+09 6.58856e+09 6.8196e+09 6.59837e+09 6.83706e+09 6.65892e+09 6.90277e+09 6.67486e+09 6.67039e+09 
6.76878e+09 6.74989e+09 6.73064e+09 6.65708e+09 6.80296e+09 6.95719e+09 6.76533e+09 6.66031e+09 6.99757e+09 
6.87686e+09 7.08119e+09 6.85132e+09 6.89875e+09 6.83728e+09 6.80094e+09 6.87424e+09 6.89186e+09 6.86325e+09 
7.13851e+09 7.26401e+09 7.04029e+09 6.97309e+09 7.05186e+09 6.84954e+09 6.777e+09 6.75624e+09 6.64838e+09 
7.09187e+09 6.83572e+09 7.11627e+09 7.0678e+09 6.73048e+09 6.51942e+09 6.71599e+09 6.66885e+09 6.75753e+09 
6.78214e+09 7.0107e+09 6.72221e+09 6.84582e+09 7.16125e+09 7.05359e+09 7.01986e+09 6.93085e+09 6.96001e+09 
6.89215e+09 6.89363e+09 6.88496e+09 7.27211e+09 6.87782e+09 7.32325e+09 6.77703e+09 7.06521e+09 7.30374e+09 
6.81519e+09 6.94758e+09 6.85173e+09 7.02943e+09 6.76394e+09 6.65599e+09 6.66559e+09 6.80853e+09 7.07989e+09 
7.04185e+09 6.86089e+09 6.81671e+09 6.66781e+09 6.7506e+09 6.8642e+09 6.91852e+09 7.10937e+09 6.76623e+09 
6.89224e+09 7.07119e+09 7.01598e+09 6.92694e+09 7.0478e+09 7.15019e+09 6.96741e+09 7.08186e+09 7.08909e+09 
7.24049e+09 7.23742e+09 6.95427e+09 6.97361e+09 7.10697e+09 6.89261e+09 7.0137e+09 6.64476e+09 6.58121e+09 
6.6332e+09 6.83606e+09 6.73258e+09 6.75207e+09 6.67183e+09 7.1223e+09 7.44102e+09 7.41984e+09 7.01867e+09 
6.80415e+09 7.03187e+09 6.89593e+09 7.25437e+09 6.81565e+09 6.87824e+09 7.2048e+09 7.04479e+09 6.85762e+09 
7.06783e+09 7.03539e+09 7.14142e+09 6.92414e+09 7.30481e+09 6.77321e+09 6.98097e+09 6.99821e+09 7.1458e+09 
7.11284e+09 7.04531e+09 6.91339e+09 6.58009e+09 6.6663e+09 6.60863e+09 6.69932e+09 6.783e+09 6.62665e+09 
6.84137e+09 6.74302e+09 6.59642e+09 6.68245e+09 6.75157e+09 6.83736e+09 7.20002e+09 6.90229e+09 6.90588e+09 
6.8131e+09 6.73197e+09 6.71663e+09 6.7139e+09 6.78061e+09 6.93401e+09 6.65233e+09 6.97923e+09 6.72763e+09 
7.08062e+09 7.08008e+09 7.28335e+09 7.18748e+09 7.16514e+09 7.2487e+09 6.68393e+09 6.85625e+09 6.7338e+09 
6.98349e+09 6.67698e+09 6.90535e+09 6.95022e+09 7.11362e+09 6.89654e+09 6.82559e+09 6.8152e+09 6.66064e+09 
6.92146e+09 6.85091e+09 7.05085e+09 7.28323e+09 6.85387e+09 7.43058e+09 6.8861e+09 6.83994e+09 6.84243e+09 
6.84279e+09 7.03351e+09 6.93574e+09 6.8672e+09 6.84652e+09 7.08392e+09 6.76771e+09 7.51649e+09 7.0328e+09 
7.23366e+09 7.1382e+09 6.94894e+09 6.82192e+09 6.89626e+09 6.9527e+09 6.97477e+09 6.76023e+09 6.49401e+09 
6.73769e+09 6.85047e+09 6.93945e+09 6.60772e+09 6.71292e+09 6.83855e+09 6.82844e+09 6.92932e+09 6.9949e+09 
7.09733e+09 7.03198e+09 7.21562e+09 7.1757e+09 6.89558e+09 7.12526e+09 7.12135e+09 7.05918e+09 7.05809e+09 
6.97926e+09 7.28599e+09 7.13474e+09 7.25098e+09 7.00306e+09 7.5195e+09 7.10949e+09 7.26629e+09 7.06538e+09 
6.95009e+09 6.86158e+09 6.84911e+09 6.79635e+09 6.68826e+09 6.50054e+09 6.83095e+09 6.72457e+09 7.53292e+09 
7.47121e+09 6.95361e+09 6.70431e+09 6.79555e+09 6.68239e+09 7.09519e+09 6.72214e+09 6.97579e+09 6.80646e+09 
6.72303e+09 6.79886e+09 7.00978e+09 7.45035e+09 7.16351e+09 7.25318e+09 7.59004e+09 7.40766e+09 7.09401e+09 
7.10134e+09 7.28597e+09 6.80814e+09 6.95309e+09 7.01485e+09 6.74645e+09 6.61292e+09 6.67357e+09 6.52894e+09 
6.64002e+09 6.70652e+09 6.91517e+09 6.71234e+09 6.70264e+09 6.73269e+09 6.58764e+09 6.92435e+09 6.8062e+09 
6.84263e+09 7.28859e+09 6.84431e+09 6.79855e+09 6.65518e+09 6.97398e+09 6.93568e+09 6.93634e+09 6.79156e+09 
7.05501e+09 6.83256e+09 6.82509e+09 7.60122e+09 7.30622e+09 7.12345e+09 7.04153e+09 7.18358e+09 6.93473e+09 
6.74718e+09 6.98241e+09 6.85245e+09 6.85326e+09 6.98832e+09 6.61915e+09 6.72513e+09 6.73483e+09 6.75828e+09 
6.61997e+09 6.94391e+09 6.96283e+09 6.69247e+09 6.85904e+09 6.88546e+09 6.76696e+09 7.04346e+09 7.23428e+09 
6.79955e+09 6.76445e+09 6.78266e+09 7.04534e+09 6.76896e+09 6.97806e+09 6.91186e+09 7.08232e+09 7.01375e+09 
6.81417e+09 7.14999e+09 7.44133e+09 7.62631e+09 6.83149e+09 6.89092e+09 7.1325e+09 7.08154e+09 7.25492e+09 
6.65728e+09 6.72145e+09 6.74874e+09 6.71888e+09 6.92018e+09 6.75356e+09 6.77191e+09 7.20323e+09 6.72915e+09 
6.90539e+09 7.29293e+09 6.88955e+09 7.07512e+09 7.42956e+09 7.20019e+09 6.85591e+09 7.01212e+09 7.09448e+09 
7.27091e+09 7.00654e+09 7.01987e+09 7.06957e+09 7.21629e+09 7.20929e+09 7.30191e+09 7.4946e+09 7.32511e+09 
7.51694e+09 7.03421e+09 6.88009e+09 7.26765e+09 7.0131e+09 6.77512e+09 6.50755e+09 6.81051e+09 6.58719e+09 
6.99688e+09 6.72338e+09 7.33139e+09 7.111e+09 7.16382e+09 6.91498e+09 6.8207e+09 6.93181e+09 7.28577e+09 
7.19254e+09 6.97178e+09 6.8193e+09 6.7692e+09 6.72576e+09 6.80207e+09 7.19719e+09 7.25511e+09 6.93827e+09 
7.06315e+09 6.97011e+09 6.71911e+09 7.15542e+09 7.44888e+09 6.9346e+09 6.96102e+09 6.93131e+09 6.70538e+09 
6.90973e+09 6.53507e+09 6.64873e+09 6.73083e+09 6.83156e+09 6.63108e+09 6.80177e+09 6.59623e+09 6.57366e+09 
6.79132e+09 6.62819e+09 6.93972e+09 7.43987e+09 6.81187e+09 6.79299e+09 6.68447e+09 6.91685e+09 6.67567e+09 
7.15434e+09 6.87897e+09 6.84796e+09 7.17227e+09 6.97354e+09 7.72132e+09 7.08403e+09 6.92313e+09 6.95174e+09 
7.02316e+09 6.87376e+09 7.01638e+09 6.927e+09 6.85816e+09 6.81895e+09 6.67765e+09 6.98223e+09 6.75335e+09 
6.4574e+09 6.81477e+09 6.66017e+09 6.76057e+09 6.54465e+09 6.63552e+09 6.59764e+09 7.04257e+09 7.07263e+09 
6.75486e+09 6.93817e+09 7.03407e+09 6.74769e+09 6.87293e+09 7.0231e+09 6.94776e+09 6.89776e+09 6.87731e+09 
7.12937e+09 7.09807e+09 6.79426e+09 7.10551e+09 7.1228e+09 7.29385e+09 6.95221e+09 6.88098e+09 6.79288e+09 
6.69854e+09 7.01195e+09 6.73026e+09 6.89135e+09 6.73988e+09 6.83314e+09 6.86309e+09 6.8777e+09 6.61279e+09 
6.56122e+09 6.70611e+09 6.59119e+09 6.95642e+09 6.88261e+09 6.75488e+09 7.56338e+09 7.12838e+09 6.92455e+09 
6.92585e+09 6.8074e+09 7.24211e+09 6.93183e+09 6.9908e+09 7.19459e+09 7.25465e+09 6.91687e+09 7.01743e+09 
7.07061e+09 7.19115e+09 6.84881e+09 7.05629e+09 6.88368e+09 7.30494e+09 6.82441e+09 6.83318e+09 6.51852e+09 
6.6437e+09 7.02039e+09 6.85925e+09 6.89333e+09 6.68614e+09 6.85327e+09 6.84135e+09 6.80398e+09 6.76174e+09 
6.95593e+09 6.71117e+09 6.80115e+09 6.78539e+09 6.93727e+09 6.80392e+09 7.02781e+09 6.94712e+09 6.79966e+09 
7.1768e+09 6.90996e+09 7.29228e+09 6.87966e+09 7.04855e+09 7.7264e+09 7.4419e+09 7.1527e+09 6.90261e+09 
7.17935e+09 6.79648e+09 6.80603e+09 6.89756e+09 6.92845e+09 6.97909e+09 6.65443e+09 7.09333e+09 6.74483e+09 
6.60712e+09 6.82282e+09 6.8316e+09 6.70121e+09 6.96012e+09 6.96851e+09 6.78623e+09 6.83714e+09 6.9197e+09 
7.01176e+09 6.99727e+09 7.41942e+09 6.95536e+09 7.21334e+09 7.1466e+09 6.75778e+09 6.725e+09 7.6642e+09 
7.44865e+09 7.37414e+09 6.76697e+09 6.97277e+09 6.80546e+09 6.67945e+09 6.69217e+09 7.04346e+09 6.90485e+09 
7.12931e+09 6.85515e+09 6.64362e+09 6.89583e+09 6.8412e+09 6.6085e+09 6.65406e+09 6.64984e+09 7.04558e+09 
6.93321e+09 7.25895e+09 6.94942e+09 6.77914e+09 6.81114e+09 6.75763e+09 7.0652e+09 6.81078e+09 6.96505e+09 
7.2099e+09 7.38483e+09 6.70039e+09 7.20263e+09 7.1607e+09 7.12517e+09 7.33075e+09 6.95255e+09 6.9465e+09 
6.98257e+09 6.5623e+09 6.66259e+09 7.26429e+09 6.65994e+09 6.84617e+09 7.04654e+09 6.80736e+09 6.64074e+09 
6.61801e+09 6.9393e+09 6.7385e+09 6.76943e+09 6.6679e+09 6.75135e+09 6.73991e+09 6.90714e+09 7.44949e+09 
7.01036e+09 7.34604e+09 7.2483e+09 7.36421e+09 6.84892e+09 7.41972e+09 7.09341e+09 7.06134e+09 7.16734e+09 
7.25549e+09 7.78386e+09 7.31513e+09 6.90206e+09 6.85971e+09 6.85946e+09 6.79332e+09 6.78238e+09 6.89859e+09 
6.91438e+09 6.54383e+09 6.81509e+09 6.78442e+09 6.65034e+09 6.60234e+09 6.89666e+09 6.7744e+09 7.00609e+09 
6.87971e+09 6.93167e+09 6.82472e+09 6.98867e+09 7.09295e+09 7.19121e+09 6.97256e+09 6.83419e+09 7.04387e+09 
6.99392e+09 7.13815e+09 6.94954e+09 7.02364e+09 7.15646e+09 6.95971e+09 7.03811e+09 7.10812e+09 7.00334e+09 
7.0131e+09 7.17174e+09 7.0271e+09 6.94058e+09 6.97179e+09 7.00365e+09 6.94854e+09 6.92718e+09 6.89432e+09 
6.67446e+09 6.72287e+09 6.86179e+09 6.8982e+09 6.93068e+09 6.72489e+09 6.92494e+09 7.01277e+09 7.00975e+09 
6.68468e+09 6.88976e+09 7.07222e+09 7.35298e+09 7.16015e+09 6.95838e+09 6.82423e+09 7.16747e+09 7.15653e+09 
6.92695e+09 7.41806e+09 7.12529e+09 7.2515e+09 6.99918e+09 6.89203e+09 7.12991e+09 7.01924e+09 6.73222e+09 
6.9828e+09 7.04475e+09 7.14154e+09 6.89054e+09 6.7327e+09 6.73269e+09 6.65741e+09 7.25511e+09 7.00945e+09 
6.8368e+09 7.01749e+09 6.94158e+09 7.0233e+09 6.74464e+09 6.81483e+09 6.65074e+09 6.83898e+09 7.47341e+09 
7.05936e+09 7.14955e+09 7.51452e+09 6.97383e+09 7.01438e+09 7.04547e+09 6.84286e+09 6.93977e+09 7.32407e+09 
7.09891e+09 6.85681e+09 6.86436e+09 6.95123e+09 6.85166e+09 6.86415e+09 6.66055e+09 6.79082e+09 6.64999e+09 
6.93989e+09 6.90823e+09 6.67502e+09 6.96736e+09 6.72926e+09 7.12495e+09 6.87669e+09 6.87554e+09 6.83076e+09 
6.81441e+09 7.63148e+09 6.70311e+09 6.93226e+09 7.08064e+09 6.89084e+09 7.1778e+09 7.34518e+09 7.01173e+09 
6.7665e+09 6.84466e+09 7.56125e+09 6.82456e+09 6.99317e+09 7.05129e+09 6.77615e+09 6.88502e+09 7.08815e+09 
6.97618e+09 6.89119e+09 6.65995e+09 6.67948e+09 6.57899e+09 6.68065e+09 7.06424e+09 6.6361e+09 6.54794e+09 
6.83852e+09 7.1028e+09 6.93113e+09 6.76338e+09 6.95991e+09 6.77404e+09 6.81287e+09 7.44434e+09 7.27468e+09 
7.14072e+09 7.13422e+09 7.19723e+09 6.96515e+09 7.27362e+09 6.92333e+09 7.42574e+09 7.30611e+09 7.12428e+09 
7.4177e+09 7.13356e+09 6.89792e+09 6.9582e+09 6.79847e+09 6.69924e+09 6.93696e+09 7.07963e+09 6.84827e+09 
7.10661e+09 6.86298e+09 6.73184e+09 6.87504e+09 6.82637e+09 7.0369e+09 6.72707e+09 7.08818e+09 6.75012e+09 
7.00877e+09 6.79969e+09 7.11181e+09 7.20385e+09 7.0647e+09 6.98061e+09 6.72532e+09 6.65211e+09 6.82259e+09 
6.92087e+09 7.03059e+09 6.88013e+09 7.34682e+09 6.95124e+09 7.44065e+09 6.87684e+09 6.81089e+09 7.06155e+09 
6.78596e+09 7.0677e+09 6.86526e+09 6.68419e+09 6.74489e+09 6.96634e+09 6.85392e+09 6.80607e+09 6.77432e+09 
7.01502e+09 6.91278e+09 7.00503e+09 6.75805e+09 6.80337e+09 7.33355e+09 6.82361e+09 6.92861e+09 6.68651e+09 
7.15066e+09 6.89204e+09 6.91804e+09 6.86512e+09 6.98615e+09 6.83538e+09 6.91191e+09 6.92328e+09 7.60168e+09 
7.04707e+09 7.24211e+09 7.17841e+09 6.91371e+09 6.97348e+09 6.63896e+09 6.97936e+09 6.74515e+09 7.07201e+09 
6.98717e+09 6.77421e+09 6.86968e+09 6.84426e+09 6.57111e+09 6.9213e+09 6.99108e+09 7.40024e+09 6.76574e+09 
6.77873e+09 6.86145e+09 6.83638e+09 6.96444e+09 6.67897e+09 6.88204e+09 7.30099e+09 7.3417e+09 7.28759e+09 
6.92923e+09 6.96437e+09 6.94723e+09 6.89992e+09 6.89051e+09 7.45983e+09 6.97052e+09 7.25551e+09 6.81485e+09 
6.8553e+09 6.87287e+09 6.80564e+09 6.84902e+09 7.02797e+09 7.04987e+09 6.64287e+09 6.74854e+09 6.77276e+09 
6.91246e+09 6.87892e+09 6.708e+09 7.02545e+09 7.02995e+09 6.83531e+09 6.67942e+09 6.80082e+09 6.85857e+09 
6.80412e+09 7.37089e+09 7.5931e+09 7.15709e+09 6.95633e+09 7.38884e+09 6.97404e+09 6.92442e+09 7.22304e+09 
7.40402e+09 7.20002e+09 7.1027e+09 7.07374e+09 6.91062e+09 6.88773e+09 6.72265e+09 6.67688e+09 6.68631e+09 
6.65211e+09 6.72127e+09 7.05271e+09 6.83448e+09 7.11466e+09 6.99325e+09 6.7536e+09 6.71495e+09 6.78264e+09 
7.01204e+09 7.29179e+09 7.14817e+09 6.73825e+09 6.75616e+09 6.9632e+09 6.7972e+09 6.64342e+09 6.66353e+09 
6.77709e+09 7.14226e+09 6.8573e+09 6.86021e+09 7.03267e+09 7.83856e+09 7.34419e+09 6.93226e+09 7.02553e+09 
6.72213e+09 7.12523e+09 6.77953e+09 6.75948e+09 6.71857e+09 6.81703e+09 6.84873e+09 6.73192e+09 6.93389e+09 
6.73519e+09 6.74055e+09 6.64676e+09 6.45181e+09 6.63631e+09 6.81375e+09 6.96462e+09 6.6819e+09 6.62162e+09 
6.82379e+09 7.03861e+09 6.83878e+09 6.89669e+09 7.19059e+09 7.03684e+09 6.7295e+09 6.72431e+09 6.87533e+09 
6.94364e+09 7.62857e+09 7.67413e+09 7.10639e+09 6.89951e+09 6.84288e+09 6.79746e+09 6.74899e+09 6.86432e+09 
6.84233e+09 6.80944e+09 6.77813e+09 6.65634e+09 6.76232e+09 7.16055e+09 6.82539e+09 6.84625e+09 6.80182e+09 
6.76428e+09 6.80371e+09 6.71903e+09 6.87773e+09 6.98693e+09 6.96176e+09 7.30276e+09 7.38543e+09 6.84461e+09 
6.89651e+09 7.74754e+09 7.18799e+09 7.53144e+09 6.8089e+09 7.00764e+09 7.20577e+09 7.05971e+09 7.0063e+09 
7.0252e+09 6.79767e+09 6.90501e+09 6.91075e+09 6.73726e+09 6.93029e+09 7.00034e+09 7.04278e+09 6.81217e+09 
6.88185e+09 7.07791e+09 7.02211e+09 6.74039e+09 6.67383e+09 6.75764e+09 6.8373e+09 6.75176e+09 6.99214e+09 
6.89207e+09 7.06152e+09 7.07765e+09 7.18753e+09 7.01216e+09 7.0449e+09 6.78067e+09 7.19826e+09 7.04898e+09 
6.90527e+09 7.66223e+09 7.31607e+09 7.60795e+09 6.92675e+09 7.00174e+09 6.89367e+09 7.19602e+09 6.74374e+09 
6.68508e+09 6.93497e+09 6.72904e+09 6.61723e+09 7.08588e+09 6.86145e+09 7.41474e+09 6.82043e+09 6.65584e+09 
6.66232e+09 6.61591e+09 6.90345e+09 7.22465e+09 7.01331e+09 7.17503e+09 7.02708e+09 6.81607e+09 6.92444e+09 
7.51538e+09 6.92611e+09 6.84076e+09 7.31454e+09 7.0696e+09 7.22744e+09 7.10847e+09 6.8185e+09 7.14374e+09 
6.84079e+09 6.89641e+09 6.95509e+09 7.33206e+09 6.76421e+09 6.76837e+09 6.77038e+09 6.66725e+09 6.91525e+09 
6.77331e+09 7.08469e+09 7.33535e+09 6.97335e+09 6.62439e+09 6.51768e+09 6.48279e+09 6.69778e+09 7.18022e+09 
7.05364e+09 7.00473e+09 7.02213e+09 6.97288e+09 6.93658e+09 6.99612e+09 6.78445e+09 7.03046e+09 7.11946e+09 
7.09249e+09 6.88362e+09 6.89355e+09 7.87151e+09 6.85762e+09 6.80703e+09 6.78736e+09 7.08249e+09 6.88733e+09 
6.86356e+09 6.90216e+09 6.76655e+09 6.93266e+09 6.72825e+09 6.74074e+09 7.05836e+09 6.6019e+09 6.78019e+09 
6.8887e+09 6.77539e+09 6.6746e+09 6.87778e+09 6.7952e+09 6.6621e+09 6.94682e+09 6.99284e+09 6.95128e+09 
7.09543e+09 6.85762e+09 7.13192e+09 7.46724e+09 7.24613e+09 7.09132e+09 6.96664e+09 7.28923e+09 7.4165e+09 
7.06247e+09 6.81035e+09 6.72848e+09 7.00546e+09 6.71912e+09 6.98899e+09 6.92113e+09 6.73763e+09 6.7198e+09 
6.99115e+09 7.20172e+09 7.25622e+09 7.00263e+09 6.97563e+09 6.77441e+09 6.89482e+09 6.8116e+09 6.64989e+09 
6.8141e+09 6.72764e+09 7.12759e+09 6.97832e+09 6.76813e+09 6.98312e+09 7.07193e+09 6.98118e+09 6.85968e+09 
6.73648e+09 7.09778e+09 7.01993e+09 7.59122e+09 7.05562e+09 7.14362e+09 7.26714e+09 7.00369e+09 6.67887e+09 
6.96e+09 6.58102e+09 6.68627e+09 6.63149e+09 6.52525e+09 6.6726e+09 6.80563e+09 6.97477e+09 7.00725e+09 
6.96646e+09 6.79594e+09 6.78901e+09 6.95081e+09 7.06271e+09 6.94702e+09 7.12572e+09 7.23872e+09 7.13499e+09 
6.93812e+09 6.98531e+09 7.11406e+09 6.92981e+09 6.87941e+09 6.99921e+09 7.38232e+09 6.85133e+09 7.02844e+09 
7.20441e+09 6.95323e+09 7.02954e+09 7.11263e+09 7.14576e+09 6.82788e+09 6.74238e+09 6.85426e+09 6.71313e+09 
6.62454e+09 6.83355e+09 6.92784e+09 7.18946e+09 6.69676e+09 6.69249e+09 6.79532e+09 7.12816e+09 6.77578e+09 
6.6184e+09 6.81219e+09 6.89441e+09 6.79043e+09 7.08451e+09 6.92177e+09 6.86473e+09 6.88905e+09 6.87975e+09 
7.0332e+09 6.91157e+09 6.80197e+09 6.85372e+09 6.99892e+09 6.96604e+09 6.79328e+09 6.91213e+09 7.17224e+09 
6.78495e+09 7.03734e+09 6.82878e+09 6.85222e+09 6.58524e+09 6.7296e+09 6.91076e+09 6.82249e+09 6.92046e+09 
6.72586e+09 7.27669e+09 6.92906e+09 6.97046e+09 6.81445e+09 6.89252e+09 6.68261e+09 6.8997e+09 7.06475e+09 
7.1597e+09 6.66868e+09 6.77523e+09 6.71765e+09 7.10301e+09 6.90564e+09 6.96739e+09 6.9122e+09 6.89148e+09 
6.91641e+09 7.38873e+09 7.23474e+09 6.88495e+09 7.0707e+09 6.63428e+09 7.19665e+09 7.02266e+09 6.65239e+09 
6.82204e+09 6.77408e+09 6.78633e+09 6.94412e+09 6.76591e+09 6.81651e+09 6.70442e+09 6.8133e+09 6.67388e+09 
7.00323e+09 7.08988e+09 6.91414e+09 6.61757e+09 7.06679e+09 7.00637e+09 7.02179e+09 7.05658e+09 6.77519e+09 
7.19571e+09 6.98524e+09 7.41811e+09 7.25364e+09 7.19155e+09 6.95714e+09 7.22709e+09 7.02733e+09 6.90419e+09 
7.20518e+09 6.80637e+09 6.67718e+09 6.88778e+09 6.57943e+09 6.73294e+09 6.58351e+09 6.9711e+09 7.14647e+09 
7.03683e+09 6.8144e+09 6.73438e+09 6.58736e+09 6.55329e+09 6.74215e+09 6.89825e+09 6.81822e+09 7.98315e+09 
7.40838e+09 7.185e+09 6.92464e+09 6.96224e+09 6.87524e+09 6.75724e+09 6.98002e+09 6.97787e+09 7.08803e+09 
7.09913e+09 6.81455e+09 7.14789e+09 7.1518e+09 7.1573e+09 7.12581e+09 7.04518e+09 6.46262e+09 6.92995e+09 
6.6873e+09 6.70332e+09 6.72833e+09 6.74669e+09 6.84898e+09 6.98616e+09 6.87238e+09 6.53469e+09 6.72452e+09 
6.81609e+09 6.91296e+09 7.47672e+09 6.93374e+09 7.04936e+09 7.37193e+09 6.86047e+09 7.43164e+09 6.95717e+09 
7.02771e+09 6.82696e+09 6.88321e+09 6.72792e+09 6.72585e+09 7.26341e+09 6.96513e+09 6.94153e+09 6.72065e+09 
7.14972e+09 7.37797e+09 6.6919e+09 6.79522e+09 7.07541e+09 6.80342e+09 6.95067e+09 6.93251e+09 7.04194e+09 
7.08606e+09 6.94786e+09 6.78746e+09 7.01144e+09 6.85461e+09 7.0071e+09 6.75759e+09 7.42239e+09 7.09177e+09 
6.85261e+09 7.08829e+09 7.05501e+09 7.17063e+09 7.12884e+09 6.80413e+09 6.96743e+09 6.78432e+09 7.23181e+09 
7.04936e+09 7.25285e+09 7.02806e+09 6.88673e+09 6.83137e+09 7.02111e+09 7.0269e+09 7.00164e+09 6.75702e+09 
6.68534e+09 6.89853e+09 6.87712e+09 6.79785e+09 6.72082e+09 6.61817e+09 6.58951e+09 6.89848e+09 6.64685e+09 
6.58477e+09 6.90585e+09 6.8821e+09 6.98612e+09 6.91674e+09 6.89294e+09 6.98188e+09 7.20973e+09 7.19467e+09 
6.83204e+09 6.82823e+09 6.96756e+09 6.94661e+09 6.99844e+09 7.1572e+09 6.95542e+09 7.05959e+09 7.08323e+09 
7.25292e+09 7.11704e+09 7.27619e+09 7.1766e+09 6.90671e+09 6.89782e+09 6.80308e+09 6.85151e+09 6.84511e+09 
6.64153e+09 7.05361e+09 6.94758e+09 6.80815e+09 6.64075e+09 6.78418e+09 6.72222e+09 6.5957e+09 6.66217e+09 
6.81138e+09 6.52463e+09 7.07522e+09 7.28961e+09 7.12724e+09 7.3374e+09 7.17777e+09 6.97963e+09 7.14947e+09 
6.964e+09 7.03549e+09 7.04476e+09 6.82181e+09 6.91129e+09 6.72372e+09 7.2099e+09 7.09317e+09 6.66571e+09 
6.72233e+09 6.72148e+09 6.73786e+09 6.57606e+09 6.74669e+09 6.7975e+09 6.88981e+09 6.97665e+09 6.77934e+09 
6.54864e+09 6.67504e+09 6.78118e+09 7.17458e+09 6.76858e+09 6.74422e+09 7.24941e+09 7.15118e+09 7.11904e+09 
7.2945e+09 7.1944e+09 6.93101e+09 7.27376e+09 6.73108e+09 6.78084e+09 7.15196e+09 7.3053e+09 7.09706e+09 
6.93773e+09 6.83831e+09 6.95291e+09 7.09375e+09 7.11612e+09 6.82384e+09 6.93662e+09 6.9126e+09 6.6886e+09 
6.95843e+09 6.94136e+09 6.89657e+09 6.71528e+09 6.67304e+09 6.83007e+09 6.69039e+09 6.96293e+09 6.63484e+09 
7.43801e+09 7.00027e+09 6.93675e+09 7.03029e+09 7.24027e+09 6.76141e+09 6.79266e+09 6.91685e+09 6.80419e+09 
6.70825e+09 7.00178e+09 7.1716e+09 7.04053e+09 6.94249e+09 7.15905e+09 7.0401e+09 7.24901e+09 7.30847e+09 
6.98503e+09 6.80237e+09 7.11568e+09 6.7405e+09 6.97915e+09 6.7461e+09 6.61988e+09 6.68591e+09 6.71969e+09 
6.77532e+09 6.62134e+09 6.62708e+09 6.91629e+09 6.64898e+09 6.79731e+09 6.68266e+09 6.84318e+09 7.03607e+09 
7.19057e+09 7.23128e+09 6.85555e+09 6.95758e+09 6.95053e+09 6.76595e+09 7.13802e+09 7.12001e+09 7.62926e+09 
7.04682e+09 6.83861e+09 6.96907e+09 7.12127e+09 7.29012e+09 7.35354e+09 7.59644e+09 7.25069e+09 6.79684e+09 
6.80623e+09 6.95292e+09 6.8668e+09 6.90162e+09 6.78122e+09 6.71829e+09 6.95136e+09 6.61998e+09 7.01674e+09 
6.93695e+09 6.73312e+09 6.67885e+09 6.61074e+09 6.55788e+09 7.14718e+09 7.20221e+09 6.71221e+09 7.46397e+09 
7.19016e+09 7.00924e+09 7.20025e+09 6.84414e+09 6.88787e+09 7.22331e+09 7.12814e+09 7.04563e+09 7.17662e+09 
7.16502e+09 8.02364e+09 7.87003e+09 6.9114e+09 6.85628e+09 6.91477e+09 6.94493e+09 6.95862e+09 6.8347e+09 
6.70691e+09 6.74016e+09 6.7432e+09 6.74569e+09 6.88618e+09 6.70817e+09 6.59102e+09 6.68402e+09 6.87124e+09 
6.80403e+09 6.88143e+09 6.69229e+09 6.84854e+09 6.91073e+09 7.20679e+09 6.97081e+09 7.30974e+09 6.96664e+09 
7.01243e+09 6.83037e+09 7.22382e+09 7.17974e+09 7.59891e+09 7.21009e+09 7.48629e+09 7.57606e+09 7.166e+09 
6.72973e+09 6.62903e+09 6.87528e+09 7.22229e+09 6.78892e+09 6.67927e+09 6.83224e+09 6.74425e+09 6.70316e+09 
6.962e+09 7.05708e+09 6.62874e+09 6.56907e+09 6.77462e+09 6.93927e+09 6.59928e+09 6.67225e+09 6.6569e+09 
6.79861e+09 7.04783e+09 6.88913e+09 7.00274e+09 7.16963e+09 6.99392e+09 6.99303e+09 7.03422e+09 7.05741e+09 
7.51323e+09 7.87905e+09 6.85139e+09 7.10869e+09 7.00783e+09 6.98254e+09 6.82253e+09 7.39162e+09 7.08406e+09 
6.74178e+09 6.80351e+09 6.58515e+09 6.74303e+09 6.94943e+09 7.05914e+09 6.89361e+09 6.88485e+09 6.73635e+09 
7.28692e+09 7.75525e+09 7.14242e+09 7.26287e+09 6.86993e+09 6.67554e+09 6.66522e+09 6.73044e+09 6.78702e+09 
6.57828e+09 6.92893e+09 7.00141e+09 6.82013e+09 7.23817e+09 7.16922e+09 7.58519e+09 6.75821e+09 7.33373e+09 
7.12227e+09 7.00889e+09 7.16333e+09 7.03815e+09 6.9761e+09 6.75354e+09 6.76839e+09 6.7947e+09 7.11757e+09 
6.75309e+09 6.84162e+09 6.87986e+09 6.85415e+09 6.91714e+09 6.88483e+09 6.91599e+09 6.86735e+09 7.00426e+09 
7.14757e+09 7.46321e+09 7.07878e+09 7.25731e+09 7.25659e+09 7.35012e+09 6.92588e+09 7.14263e+09 6.92832e+09 
7.06534e+09 7.50144e+09 7.59854e+09 7.32471e+09 7.21784e+09 7.23373e+09 6.773e+09 6.94653e+09 7.05875e+09 
7.02398e+09 6.9269e+09 6.76011e+09 6.8385e+09 6.697e+09 6.95536e+09 7.32355e+09 6.76629e+09 7.04518e+09 
6.85876e+09 6.67575e+09 6.81116e+09 6.66725e+09 7.12891e+09 6.76949e+09 6.84245e+09 7.06737e+09 6.88163e+09 
7.24615e+09 7.27166e+09 7.15796e+09 6.7756e+09 6.82036e+09 7.25492e+09 7.47755e+09 7.44951e+09 7.0849e+09 
6.95427e+09 7.0529e+09 6.82383e+09 6.88863e+09 6.85388e+09 6.94466e+09 6.85493e+09 6.87862e+09 7.09367e+09 
6.98389e+09 6.75656e+09 6.98552e+09 7.08074e+09 6.78841e+09 6.68121e+09 6.61641e+09 6.72012e+09 6.70869e+09 
7.25123e+09 7.19648e+09 6.97012e+09 6.911e+09 7.26443e+09 6.79849e+09 7.35798e+09 7.15856e+09 7.21292e+09 
7.53274e+09 7.3531e+09 7.36706e+09 7.253e+09 6.86131e+09 6.77492e+09 6.73661e+09 6.83049e+09 6.79224e+09 
6.84398e+09 6.85247e+09 6.68126e+09 6.89169e+09 6.73008e+09 7.09697e+09 6.93258e+09 6.92927e+09 6.90418e+09 
6.86673e+09 6.90387e+09 6.83412e+09 6.96297e+09 6.64568e+09 6.99507e+09 6.89125e+09 6.76103e+09 6.78889e+09 
6.93316e+09 6.81371e+09 7.08163e+09 6.86728e+09 6.95468e+09 6.77392e+09 7.15404e+09 7.03502e+09 7.05955e+09 
6.72367e+09 6.97097e+09 7.17315e+09 6.97893e+09 7.41038e+09 6.89086e+09 6.69912e+09 6.74366e+09 6.9291e+09 
7.14596e+09 6.88666e+09 6.88608e+09 6.75442e+09 6.72704e+09 6.77195e+09 6.89141e+09 6.85644e+09 7.03723e+09 
7.04659e+09 7.19734e+09 6.98965e+09 7.26775e+09 6.62931e+09 7.17027e+09 7.02262e+09 7.14929e+09 7.19413e+09 
7.17443e+09 6.84731e+09 7.07261e+09 7.18337e+09 7.3321e+09 6.89707e+09 6.94582e+09 7.26777e+09 6.88278e+09 
7.22324e+09 6.88121e+09 6.81093e+09 6.97074e+09 6.85498e+09 6.84728e+09 7.04214e+09 6.65553e+09 6.84561e+09 
6.81053e+09 7.26876e+09 6.85933e+09 7.13772e+09 7.22262e+09 6.66608e+09 6.57754e+09 6.95966e+09 6.9436e+09 
6.85317e+09 7.08374e+09 7.15054e+09 7.21515e+09 7.15867e+09 7.37202e+09 6.97136e+09 7.18054e+09 7.42975e+09 
7.31813e+09 6.83061e+09 6.85024e+09 7.22324e+09 7.02779e+09 7.03326e+09 6.90951e+09 6.77443e+09 6.98504e+09 
7.08259e+09 7.22356e+09 7.08348e+09 6.81099e+09 6.76001e+09 6.87869e+09 6.84784e+09 6.93956e+09 6.83357e+09 
6.68233e+09 6.89674e+09 7.12444e+09 7.07634e+09 7.10286e+09 6.7804e+09 6.57696e+09 6.7311e+09 7.08547e+09 
7.019e+09 6.81424e+09 7.32677e+09 7.17022e+09 7.35415e+09 7.23391e+09 6.98813e+09 6.91868e+09 7.38232e+09 
7.11883e+09 6.71786e+09 6.85726e+09 6.8006e+09 7.08068e+09 6.86118e+09 7.02534e+09 7.05991e+09 7.09163e+09 