# vtk DataFile Version 3.0
vtk output
ASCII
DATASET RECTILINEAR_GRID
FIELD FieldData 4
MeshName 1 1 string
mesh

CYCLE 1 1 int
10 
TIME 1 1 double
10 
avtOriginalBounds 1 6 double
0 1.95312 0.671387 0.915527 0 1.95312 
DIMENSIONS 33 5 33
X_COORDINATES 33 double
0 0.0610352 0.12207 0.183105 0.244141 0.305176 0.366211 0.427246 0.488281 
0.549316 0.610352 0.671387 0.732422 0.793457 0.854492 0.915527 0.976562 1.0376 
1.09863 1.15967 1.2207 1.28174 1.34277 1.40381 1.46484 1.52588 1.58691 
1.64795 1.70898 1.77002 1.83105 1.89209 1.95312 
Y_COORDINATES 5 double
0.671387 0.732422 0.793457 0.854492 0.915527 
Z_COORDINATES 33 double
0 0.0610352 0.12207 0.183105 0.244141 0.305176 0.366211 0.427246 0.488281 
0.549316 0.610352 0.671387 0.732422 0.793457 0.854492 0.915527 0.976562 1.0376 
1.09863 1.15967 1.2207 1.28174 1.34277 1.40381 1.46484 1.52588 1.58691 
1.64795 1.70898 1.77002 1.83105 1.89209 1.95312 
CELL_DATA 4096
SCALARS simdata double
LOOKUP_TABLE default
6.64764e+09 6.84608e+09 7.18462e+09 7.06283e+09 7.28887e+09 7.05311e+09 6.97125e+09 6.6957e+09 6.92498e+09 
6.88469e+09 6.61773e+09 6.78591e+09 6.8123e+09 6.76228e+09 6.69023e+09 6.83569e+09 7.06897e+09 6.74934e+09 
6.82647e+09 6.78606e+09 7.2674e+09 7.21284e+09 6.87143e+09 6.75199e+09 6.79371e+09 6.71655e+09 6.79235e+09 
6.68049e+09 6.77881e+09 6.94961e+09 6.80232e+09 6.82728e+09 6.84942e+09 7.10345e+09 6.92576e+09 6.9787e+09 
6.82769e+09 6.79181e+09 7.13888e+09 6.9673e+09 6.74933e+09 6.65278e+09 6.65344e+09 6.73669e+09 7.00769e+09 
7.02601e+09 6.91994e+09 6.55281e+09 7.06631e+09 6.79075e+09 6.96814e+09 6.75576e+09 6.865e+09 6.80712e+09 
6.76613e+09 6.55189e+09 6.76376e+09 6.59395e+09 6.96849e+09 6.80864e+09 6.76011e+09 6.87175e+09 6.87855e+09 
6.77427e+09 6.76414e+09 6.90284e+09 6.71208e+09 6.62472e+09 6.85586e+09 6.78702e+09 7.10858e+09 7.06588e+09 
6.94771e+09 6.81566e+09 6.95446e+09 6.70555e+09 6.81536e+09 6.77472e+09 6.8708e+09 6.55583e+09 6.93083e+09 
6.67277e+09 6.53799e+09 6.6416e+09 6.98575e+09 6.62648e+09 7.16604e+09 6.71771e+09 6.80232e+09 6.86581e+09 
7.01845e+09 6.84824e+09 6.80325e+09 6.78842e+09 6.64971e+09 6.74242e+09 7.2434e+09 7.24882e+09 6.95906e+09 
6.83607e+09 6.85185e+09 6.75633e+09 7.05892e+09 6.95329e+09 6.87661e+09 6.8376e+09 7.28175e+09 7.48348e+09 
6.89238e+09 6.80565e+09 6.77952e+09 6.85063e+09 7.21394e+09 7.30639e+09 6.7967e+09 6.42152e+09 7.03621e+09 
7.236e+09 6.70702e+09 6.76146e+09 7.09122e+09 7.03463e+09 6.95789e+09 6.73808e+09 6.60565e+09 6.56649e+09 
6.79274e+09 6.77893e+09 6.90197e+09 6.88221e+09 6.65712e+09 6.66349e+09 6.93066e+09 6.85975e+09 6.78963e+09 
6.73871e+09 6.64769e+09 6.87028e+09 6.94001e+09 6.80468e+09 6.84969e+09 6.79037e+09 7.10522e+09 6.87317e+09 
6.72136e+09 6.64725e+09 6.89785e+09 6.8012e+09 6.75885e+09 6.75435e+09 7.06979e+09 6.85216e+09 6.76593e+09 
6.8534e+09 6.89208e+09 6.86615e+09 6.70886e+09 6.74346e+09 6.65809e+09 6.69012e+09 7.05406e+09 7.19475e+09 
6.87968e+09 6.65486e+09 7.01857e+09 7.04258e+09 6.71435e+09 6.69825e+09 6.54769e+09 6.82611e+09 7.02248e+09 
6.70711e+09 6.79315e+09 6.80563e+09 6.89911e+09 6.68752e+09 6.6817e+09 6.66902e+09 6.74986e+09 6.90994e+09 
6.64821e+09 6.83408e+09 6.67913e+09 6.5037e+09 6.79179e+09 6.8773e+09 6.75028e+09 7.04519e+09 6.8402e+09 
6.95521e+09 6.8997e+09 6.79565e+09 7.34074e+09 6.97158e+09 6.97605e+09 6.80561e+09 6.92828e+09 6.87598e+09 
7.14864e+09 7.38471e+09 6.80743e+09 6.90308e+09 6.9348e+09 7.04628e+09 6.67459e+09 6.9004e+09 7.1338e+09 
6.73834e+09 7.17946e+09 6.65022e+09 6.66963e+09 6.7602e+09 6.64083e+09 6.85358e+09 7.12403e+09 6.70136e+09 
6.81471e+09 6.69144e+09 6.86365e+09 6.87058e+09 6.96968e+09 6.70356e+09 6.72854e+09 6.75417e+09 7.43613e+09 
7.0471e+09 7.01193e+09 6.72291e+09 7.03092e+09 6.99676e+09 7.30343e+09 6.63866e+09 6.67942e+09 7.04357e+09 
6.77281e+09 7.38577e+09 7.13155e+09 6.86374e+09 6.89825e+09 6.86837e+09 6.69001e+09 6.75958e+09 6.74448e+09 
6.60436e+09 6.55114e+09 6.74461e+09 6.71932e+09 6.79779e+09 6.49424e+09 6.82815e+09 6.74519e+09 6.76768e+09 
6.38225e+09 6.56918e+09 6.70293e+09 6.64276e+09 6.78727e+09 7.00526e+09 7.08705e+09 6.8086e+09 7.12532e+09 
6.91586e+09 6.85172e+09 6.79263e+09 6.79378e+09 6.72753e+09 7.0861e+09 6.93086e+09 6.68399e+09 6.796e+09 
6.74317e+09 6.62052e+09 6.67123e+09 7.17243e+09 6.79709e+09 6.95828e+09 6.96046e+09 6.88183e+09 7.33523e+09 
7.03659e+09 6.84648e+09 6.79821e+09 6.8424e+09 6.76171e+09 6.92729e+09 6.7449e+09 6.7008e+09 6.71776e+09 
6.92417e+09 7.02943e+09 7.27905e+09 6.71062e+09 6.88894e+09 7.1053e+09 6.9378e+09 6.65672e+09 6.78886e+09 
6.94126e+09 7.05624e+09 6.70916e+09 6.95272e+09 6.82368e+09 6.74209e+09 6.71618e+09 6.71385e+09 6.68954e+09 
6.73092e+09 6.80085e+09 6.67239e+09 6.86045e+09 6.9384e+09 6.63618e+09 6.88991e+09 6.82225e+09 6.97672e+09 
6.69171e+09 7.05201e+09 6.67514e+09 6.68019e+09 6.84011e+09 7.28194e+09 7.12447e+09 6.78784e+09 6.55896e+09 
6.67281e+09 7.01303e+09 7.15217e+09 7.23303e+09 7.04711e+09 6.77798e+09 6.94093e+09 6.83156e+09 6.93909e+09 
7.10918e+09 6.73578e+09 6.85711e+09 6.83276e+09 6.62242e+09 6.40535e+09 6.60418e+09 6.72134e+09 6.71173e+09 
6.94561e+09 6.77119e+09 6.94541e+09 6.98197e+09 6.95835e+09 6.73687e+09 6.6855e+09 6.47954e+09 6.70088e+09 
6.72396e+09 7.39105e+09 6.81635e+09 7.10671e+09 6.79385e+09 7.02664e+09 6.95033e+09 7.19483e+09 6.95488e+09 
6.89175e+09 6.75639e+09 6.72901e+09 6.73498e+09 6.93168e+09 6.96801e+09 7.23535e+09 6.81234e+09 7.10302e+09 
6.80079e+09 6.64578e+09 6.53972e+09 6.57801e+09 6.66128e+09 6.95617e+09 6.67594e+09 6.61748e+09 6.86852e+09 
7.08975e+09 6.65249e+09 6.68568e+09 7.10915e+09 6.87867e+09 6.63301e+09 6.92074e+09 6.95489e+09 6.94388e+09 
6.93039e+09 6.88749e+09 6.81232e+09 6.93139e+09 7.13433e+09 6.94198e+09 6.80227e+09 6.70138e+09 7.02301e+09 
6.82752e+09 6.75265e+09 7.39369e+09 7.07745e+09 6.80266e+09 6.86653e+09 6.64559e+09 6.71878e+09 6.73667e+09 
7.03839e+09 7.43241e+09 7.05417e+09 6.93893e+09 6.58256e+09 6.68795e+09 7.1307e+09 6.70418e+09 6.65009e+09 
6.8076e+09 6.61957e+09 7.0529e+09 6.86594e+09 7.05684e+09 6.88998e+09 6.87303e+09 7.13352e+09 6.9359e+09 
6.85975e+09 6.86967e+09 6.78979e+09 6.83049e+09 6.8862e+09 6.86877e+09 6.56485e+09 6.74727e+09 6.70903e+09 
6.57607e+09 6.63409e+09 6.6974e+09 6.85505e+09 6.86779e+09 6.65216e+09 7.11141e+09 6.84847e+09 6.72527e+09 
6.87424e+09 7.16259e+09 7.0052e+09 6.65724e+09 6.64532e+09 6.66526e+09 6.68159e+09 7.18216e+09 7.03963e+09 
7.06439e+09 6.73755e+09 6.95863e+09 7.41528e+09 7.16041e+09 7.0301e+09 6.92605e+09 6.68617e+09 6.77582e+09 
6.79874e+09 7.30868e+09 7.33588e+09 6.73069e+09 6.84181e+09 6.83523e+09 6.64552e+09 6.60582e+09 6.88615e+09 
6.76406e+09 7.10167e+09 6.82413e+09 6.97529e+09 6.82859e+09 6.71884e+09 6.6574e+09 6.73627e+09 6.82803e+09 
6.7957e+09 6.72986e+09 6.87982e+09 7.12585e+09 7.03488e+09 7.16161e+09 6.89648e+09 6.90205e+09 7.32933e+09 
7.23307e+09 6.75138e+09 7.15219e+09 6.70888e+09 6.96123e+09 6.84802e+09 7.00758e+09 6.88605e+09 6.93338e+09 
6.94479e+09 7.00087e+09 6.90699e+09 6.88709e+09 6.60443e+09 6.98299e+09 7.06748e+09 6.93685e+09 6.70157e+09 
6.51732e+09 6.5262e+09 6.76978e+09 6.99087e+09 6.62171e+09 6.58225e+09 6.94313e+09 6.77094e+09 7.07104e+09 
7.0952e+09 7.32215e+09 6.98548e+09 6.90356e+09 6.81327e+09 7.1906e+09 7.04318e+09 6.79509e+09 7.01818e+09 
6.93783e+09 6.93302e+09 6.92538e+09 6.93549e+09 6.59469e+09 7.159e+09 6.85186e+09 6.79546e+09 6.82475e+09 
7.0259e+09 6.8548e+09 7.05588e+09 7.14303e+09 6.84043e+09 7.05292e+09 6.60819e+09 6.76785e+09 6.9205e+09 
7.04119e+09 7.11612e+09 6.69079e+09 6.60007e+09 6.79561e+09 6.91638e+09 6.9182e+09 6.97584e+09 7.05448e+09 
7.2797e+09 6.88977e+09 6.88931e+09 7.12293e+09 7.17485e+09 7.22173e+09 6.92422e+09 6.62194e+09 6.80016e+09 
6.63633e+09 6.86953e+09 6.71391e+09 6.57579e+09 6.85377e+09 6.77889e+09 6.84416e+09 6.82251e+09 6.81454e+09 
6.69115e+09 6.7413e+09 6.81097e+09 6.61459e+09 6.90747e+09 6.91316e+09 6.95833e+09 6.66312e+09 6.72163e+09 
6.77029e+09 6.95224e+09 6.85681e+09 7.10156e+09 6.97655e+09 7.27874e+09 6.8277e+09 6.91216e+09 6.74955e+09 
7.15075e+09 6.84916e+09 6.87752e+09 6.74019e+09 6.65546e+09 6.84356e+09 6.76927e+09 6.67648e+09 6.53932e+09 
6.90743e+09 6.76646e+09 6.93616e+09 6.75696e+09 7.10247e+09 6.71102e+09 6.91518e+09 6.73225e+09 6.68552e+09 
6.82848e+09 7.12641e+09 6.8584e+09 6.57625e+09 6.67199e+09 7.13257e+09 7.16575e+09 7.36726e+09 6.80212e+09 
6.81173e+09 6.99214e+09 6.97351e+09 6.79062e+09 6.929e+09 7.3912e+09 6.75918e+09 6.65497e+09 6.88596e+09 
6.77695e+09 6.89795e+09 7.29562e+09 6.85576e+09 6.96858e+09 6.64373e+09 6.76321e+09 7.13542e+09 7.10059e+09 
7.09905e+09 6.79462e+09 6.61131e+09 7.13374e+09 7.00324e+09 6.95564e+09 6.88259e+09 6.61001e+09 6.91395e+09 
6.65009e+09 6.83707e+09 7.13186e+09 6.72084e+09 6.76293e+09 6.96933e+09 6.87492e+09 7.05452e+09 6.94431e+09 
6.8781e+09 6.82436e+09 6.72831e+09 6.75598e+09 7.24228e+09 6.91769e+09 6.88152e+09 7.0897e+09 7.09956e+09 
6.90855e+09 6.7876e+09 6.75131e+09 6.81577e+09 6.77526e+09 6.88161e+09 6.77404e+09 6.85801e+09 6.71366e+09 
6.81215e+09 6.87167e+09 6.9483e+09 6.57355e+09 6.78304e+09 6.71887e+09 7.00059e+09 7.0575e+09 6.8056e+09 
6.92985e+09 7.29345e+09 6.97436e+09 6.76466e+09 6.88735e+09 6.87626e+09 6.74825e+09 7.09258e+09 6.7772e+09 
6.7368e+09 6.81667e+09 6.7399e+09 6.81093e+09 6.91115e+09 7.16478e+09 6.75016e+09 6.93331e+09 6.92314e+09 
6.61459e+09 6.62409e+09 6.89739e+09 6.69919e+09 6.63514e+09 6.58198e+09 6.77688e+09 6.74222e+09 6.68007e+09 
6.57093e+09 6.83556e+09 6.88851e+09 7.00397e+09 7.076e+09 7.1541e+09 6.62082e+09 6.88345e+09 6.82676e+09 
6.94315e+09 7.00676e+09 6.86117e+09 6.83541e+09 6.69345e+09 6.79122e+09 6.93086e+09 6.58555e+09 6.84583e+09 
7.14563e+09 7.0761e+09 6.79651e+09 6.78158e+09 6.91577e+09 6.77136e+09 6.94611e+09 6.85523e+09 6.97493e+09 
6.97606e+09 6.67644e+09 6.97711e+09 6.94244e+09 6.64341e+09 6.47382e+09 6.71615e+09 6.96814e+09 7.10466e+09 
7.18595e+09 6.8525e+09 7.02121e+09 6.79165e+09 6.93235e+09 6.783e+09 6.62268e+09 6.64382e+09 6.97457e+09 
6.87193e+09 6.85963e+09 6.68899e+09 6.70301e+09 6.72687e+09 7.02587e+09 6.93028e+09 6.80545e+09 6.84276e+09 
6.85043e+09 6.72211e+09 6.71446e+09 6.65368e+09 6.79544e+09 7.03295e+09 6.86359e+09 7.1589e+09 6.89797e+09 
6.50971e+09 6.66658e+09 6.753e+09 7.06236e+09 6.94971e+09 6.66199e+09 6.77095e+09 7.14865e+09 6.88645e+09 
6.84966e+09 7.0793e+09 7.00594e+09 6.53045e+09 6.93353e+09 6.76251e+09 6.78446e+09 6.76471e+09 6.81532e+09 
6.6958e+09 6.86422e+09 6.69243e+09 6.7833e+09 6.8251e+09 6.92496e+09 6.91279e+09 7.09587e+09 6.80389e+09 
6.7738e+09 6.95094e+09 6.4814e+09 6.81436e+09 6.65954e+09 6.6334e+09 6.57847e+09 6.79708e+09 6.92545e+09 
6.78297e+09 6.81352e+09 6.83638e+09 7.03476e+09 6.95529e+09 7.25018e+09 7.51403e+09 6.94088e+09 6.74838e+09 
6.86349e+09 6.68227e+09 6.79791e+09 6.9305e+09 6.67962e+09 6.75041e+09 7.53778e+09 6.63646e+09 6.82432e+09 
6.81937e+09 6.82331e+09 6.85725e+09 7.00759e+09 7.10083e+09 6.63756e+09 6.57651e+09 6.60242e+09 6.70288e+09 
6.6565e+09 6.56141e+09 6.43447e+09 6.6555e+09 7.21181e+09 7.01137e+09 6.75899e+09 6.68881e+09 6.74134e+09 
6.90223e+09 6.78652e+09 6.92714e+09 7.01547e+09 6.795e+09 6.82804e+09 6.71292e+09 6.87561e+09 6.64077e+09 
6.89384e+09 6.73359e+09 7.57511e+09 6.8688e+09 7.00878e+09 6.81867e+09 6.85018e+09 6.51255e+09 6.70775e+09 
6.97395e+09 6.84033e+09 6.81458e+09 6.51167e+09 7.06305e+09 6.6742e+09 6.77906e+09 6.86653e+09 6.59797e+09 
7.26876e+09 7.0285e+09 6.85347e+09 6.86205e+09 6.84531e+09 6.98809e+09 6.80819e+09 6.68456e+09 6.89425e+09 
6.65209e+09 6.76899e+09 6.72672e+09 7.17413e+09 6.73982e+09 6.70137e+09 6.63455e+09 7.31978e+09 6.96518e+09 
6.81869e+09 6.9477e+09 6.8904e+09 6.64592e+09 6.73685e+09 6.80943e+09 6.70622e+09 7.38782e+09 7.31315e+09 
6.78961e+09 6.90325e+09 6.50323e+09 6.84586e+09 6.496e+09 7.19087e+09 6.95136e+09 6.82646e+09 7.27372e+09 
6.93879e+09 6.82153e+09 7.02281e+09 6.59624e+09 7.12326e+09 6.6552e+09 6.9967e+09 6.99563e+09 6.51457e+09 
7.08625e+09 6.816e+09 7.19116e+09 6.56397e+09 6.80401e+09 6.73827e+09 6.70082e+09 6.71623e+09 7.00914e+09 
6.89349e+09 6.83172e+09 6.78122e+09 6.74572e+09 6.73459e+09 6.83175e+09 6.53761e+09 6.51994e+09 6.72184e+09 
7.06012e+09 7.0959e+09 7.04204e+09 6.78454e+09 7.05115e+09 6.91482e+09 7.13372e+09 6.892e+09 6.82842e+09 
6.7397e+09 6.85968e+09 6.89298e+09 6.71499e+09 6.69641e+09 7.16403e+09 7.00319e+09 7.08451e+09 7.16492e+09 
6.67813e+09 6.75841e+09 6.60964e+09 6.83858e+09 6.89965e+09 6.65812e+09 6.83472e+09 6.73783e+09 6.87584e+09 
6.87684e+09 6.52709e+09 6.6061e+09 6.68198e+09 6.7179e+09 6.88469e+09 7.59484e+09 7.13822e+09 6.89035e+09 
7.08844e+09 6.77251e+09 6.91611e+09 6.81409e+09 7.09882e+09 6.9048e+09 6.97397e+09 6.69124e+09 6.89494e+09 
6.74114e+09 6.79363e+09 7.19977e+09 6.68041e+09 6.77776e+09 6.78421e+09 6.90483e+09 7.03531e+09 6.75391e+09 
6.51684e+09 6.78923e+09 6.81592e+09 6.80232e+09 7.17692e+09 7.03404e+09 6.75422e+09 6.86987e+09 6.52083e+09 
7.42248e+09 6.95441e+09 6.85758e+09 6.97914e+09 6.72398e+09 7.12799e+09 7.192e+09 6.64389e+09 6.68969e+09 
6.9117e+09 7.0095e+09 6.91651e+09 6.58177e+09 7.00455e+09 7.22325e+09 6.8693e+09 6.93208e+09 6.79737e+09 
6.72926e+09 6.74155e+09 6.80856e+09 6.81344e+09 6.82272e+09 6.64075e+09 6.63084e+09 6.83698e+09 6.92943e+09 
7.08794e+09 7.32453e+09 7.17424e+09 6.82676e+09 7.04516e+09 6.69818e+09 6.55422e+09 7.03417e+09 6.79996e+09 
6.87901e+09 6.8921e+09 6.64694e+09 6.83925e+09 6.99686e+09 6.89037e+09 6.8511e+09 6.73335e+09 7.00015e+09 
6.9095e+09 6.80409e+09 6.93309e+09 6.85451e+09 6.78296e+09 6.77328e+09 6.80025e+09 6.76008e+09 6.73588e+09 
6.69928e+09 6.92649e+09 6.99689e+09 6.96533e+09 7.23599e+09 6.77002e+09 6.73364e+09 6.70546e+09 6.63116e+09 
7.01053e+09 6.79e+09 6.71007e+09 6.99587e+09 7.07684e+09 6.88542e+09 6.98158e+09 6.85357e+09 6.65562e+09 
6.64251e+09 7.00458e+09 6.67235e+09 6.77713e+09 6.6238e+09 7.0792e+09 6.85749e+09 7.6715e+09 7.07483e+09 
7.03326e+09 6.62114e+09 6.64554e+09 6.67157e+09 6.68036e+09 6.63516e+09 6.58419e+09 7.09526e+09 7.07508e+09 
6.9302e+09 6.71967e+09 6.62603e+09 6.69278e+09 6.44739e+09 6.65661e+09 6.76273e+09 6.65683e+09 7.08797e+09 
7.1252e+09 6.98499e+09 6.93396e+09 7.04938e+09 7.19466e+09 6.82137e+09 6.60573e+09 6.74316e+09 6.80763e+09 
6.78086e+09 6.80543e+09 7.11194e+09 7.03865e+09 6.81477e+09 6.53399e+09 6.68167e+09 6.72244e+09 6.77386e+09 
6.62994e+09 6.86967e+09 6.6805e+09 7.02497e+09 6.92826e+09 6.69154e+09 7.03646e+09 7.12825e+09 6.51485e+09 
6.71274e+09 6.58318e+09 6.86186e+09 6.78655e+09 7.34518e+09 6.80823e+09 6.74701e+09 7.16247e+09 7.20171e+09 
6.99663e+09 6.93952e+09 6.50055e+09 7.17938e+09 6.79529e+09 6.69871e+09 6.67961e+09 7.22712e+09 6.98994e+09 
6.67428e+09 6.78529e+09 6.64988e+09 6.88062e+09 6.73955e+09 6.82497e+09 6.82258e+09 6.72256e+09 6.69277e+09 
6.7022e+09 6.75326e+09 6.86638e+09 7.0935e+09 7.10983e+09 7.05868e+09 6.83855e+09 7.04617e+09 6.91041e+09 
6.92805e+09 7.05061e+09 6.70327e+09 7.02312e+09 6.79946e+09 6.85619e+09 6.91995e+09 6.78023e+09 6.90625e+09 
6.78554e+09 6.78877e+09 6.74812e+09 6.86271e+09 6.72529e+09 6.67058e+09 6.85172e+09 6.83494e+09 6.95522e+09 
7.06257e+09 6.75575e+09 6.74412e+09 6.79079e+09 6.5632e+09 6.84937e+09 6.82565e+09 6.6638e+09 6.65485e+09 
6.78376e+09 6.72779e+09 6.791e+09 6.94292e+09 6.82692e+09 6.90797e+09 6.94423e+09 6.66281e+09 7.0046e+09 
7.02975e+09 6.96671e+09 6.98991e+09 6.8115e+09 6.75986e+09 6.78874e+09 7.04154e+09 7.0037e+09 6.78673e+09 
6.67576e+09 6.82812e+09 7.06604e+09 6.68809e+09 6.9652e+09 6.77259e+09 6.49924e+09 6.86041e+09 6.53507e+09 
6.63524e+09 6.92466e+09 6.93012e+09 6.73012e+09 6.67575e+09 6.84762e+09 6.8618e+09 6.70508e+09 6.90688e+09 
6.55426e+09 6.79377e+09 6.86137e+09 6.92062e+09 6.99976e+09 7.0893e+09 7.21877e+09 6.81175e+09 6.75876e+09 
6.98351e+09 6.84469e+09 6.7778e+09 6.97886e+09 6.96076e+09 6.70153e+09 6.93572e+09 6.83742e+09 6.75135e+09 
6.9411e+09 6.76143e+09 6.56423e+09 6.69026e+09 6.9437e+09 7.39716e+09 6.8592e+09 6.72152e+09 6.69779e+09 
6.81686e+09 6.71363e+09 6.78198e+09 6.87528e+09 6.73263e+09 7.02642e+09 7.19083e+09 6.93349e+09 7.25702e+09 
7.10698e+09 6.75488e+09 7.2335e+09 6.88564e+09 6.78818e+09 6.85268e+09 6.76389e+09 6.6858e+09 6.70107e+09 
6.87647e+09 6.98332e+09 6.6548e+09 6.76499e+09 6.70729e+09 6.55532e+09 6.55986e+09 6.66674e+09 6.85387e+09 
7.05865e+09 6.91189e+09 6.75981e+09 7.00107e+09 6.82048e+09 7.29537e+09 7.12883e+09 7.38778e+09 7.04761e+09 
6.77228e+09 6.6138e+09 6.7755e+09 7.10932e+09 7.03595e+09 7.01735e+09 7.26702e+09 7.0014e+09 6.85367e+09 
6.94831e+09 6.82707e+09 6.6853e+09 6.5043e+09 6.56862e+09 6.75957e+09 6.5725e+09 6.90164e+09 6.59241e+09 
6.89961e+09 6.76611e+09 6.8112e+09 6.7253e+09 6.71439e+09 6.96191e+09 6.70603e+09 6.93001e+09 6.71292e+09 
6.80237e+09 6.52903e+09 6.77803e+09 6.95028e+09 6.90276e+09 6.65768e+09 6.68631e+09 6.91652e+09 7.05152e+09 
6.98395e+09 7.12435e+09 7.08497e+09 6.89662e+09 7.05608e+09 6.81518e+09 7.07602e+09 6.65969e+09 6.73684e+09 
6.62191e+09 6.65653e+09 6.71414e+09 6.56942e+09 6.64726e+09 6.77916e+09 6.98196e+09 6.77161e+09 6.69812e+09 
7.05884e+09 6.83774e+09 6.79093e+09 6.87713e+09 6.74894e+09 6.93657e+09 6.78957e+09 7.05441e+09 6.92262e+09 
7.04896e+09 6.59084e+09 6.83085e+09 6.83233e+09 6.83641e+09 6.76573e+09 6.86855e+09 6.84823e+09 6.96209e+09 
7.14221e+09 7.04877e+09 6.71248e+09 6.89317e+09 6.72552e+09 6.96737e+09 6.66195e+09 6.92008e+09 7.06604e+09 
6.7442e+09 6.82956e+09 6.92471e+09 6.89008e+09 7.01537e+09 6.6866e+09 6.96976e+09 7.0812e+09 6.58183e+09 
7.00352e+09 7.03446e+09 6.88554e+09 6.7804e+09 7.03071e+09 6.77978e+09 6.92198e+09 6.94476e+09 6.70279e+09 
6.85721e+09 6.86432e+09 6.82262e+09 7.00258e+09 6.86631e+09 6.63576e+09 6.90713e+09 6.81165e+09 6.57994e+09 
6.54162e+09 6.53433e+09 6.62002e+09 6.76335e+09 6.77118e+09 6.87857e+09 6.74541e+09 6.93147e+09 6.79843e+09 
6.68726e+09 7.07098e+09 7.13857e+09 7.38266e+09 6.90514e+09 7.06893e+09 6.83127e+09 7.00566e+09 7.28644e+09 
6.83427e+09 6.84063e+09 6.73144e+09 6.91332e+09 6.83933e+09 6.90105e+09 6.9054e+09 7.1442e+09 7.17906e+09 
6.71208e+09 6.96903e+09 6.71387e+09 6.74147e+09 6.76178e+09 6.46938e+09 7.002e+09 6.74458e+09 6.95618e+09 
6.77567e+09 7.1283e+09 6.98724e+09 6.94994e+09 6.86926e+09 6.55602e+09 6.84191e+09 7.13854e+09 6.70044e+09 
6.69419e+09 6.68021e+09 6.84114e+09 6.98873e+09 6.82513e+09 6.80182e+09 7.03154e+09 6.82792e+09 6.62347e+09 
7.18763e+09 7.08422e+09 7.31792e+09 6.95719e+09 6.95613e+09 6.6603e+09 6.67747e+09 6.82111e+09 7.00984e+09 
6.58766e+09 6.63273e+09 6.59972e+09 6.84193e+09 6.70141e+09 6.93818e+09 7.10202e+09 6.81961e+09 6.8195e+09 
6.86739e+09 7.00636e+09 6.84684e+09 6.86889e+09 6.71497e+09 6.74676e+09 6.89546e+09 6.79674e+09 6.64188e+09 
6.63072e+09 6.88989e+09 6.85594e+09 6.71729e+09 6.8053e+09 7.13838e+09 7.13991e+09 7.15454e+09 7.02117e+09 
6.98788e+09 6.92309e+09 6.95861e+09 6.83429e+09 6.56494e+09 6.88686e+09 6.91845e+09 6.89802e+09 6.83348e+09 
6.77104e+09 6.73838e+09 6.97308e+09 6.62924e+09 6.99861e+09 6.75156e+09 7.11535e+09 6.97741e+09 6.90057e+09 
6.94211e+09 6.89428e+09 6.91229e+09 7.0811e+09 6.85478e+09 6.6818e+09 6.96122e+09 6.87773e+09 6.76284e+09 
6.73748e+09 6.6987e+09 6.972e+09 6.84919e+09 7.04687e+09 6.9336e+09 7.03051e+09 6.93986e+09 6.63844e+09 
6.70682e+09 6.86452e+09 6.6274e+09 6.80379e+09 6.92894e+09 6.86796e+09 6.56473e+09 6.82248e+09 6.76723e+09 
6.53892e+09 6.83057e+09 6.95149e+09 6.75001e+09 7.03183e+09 7.05945e+09 6.67138e+09 6.8588e+09 6.77387e+09 
6.59282e+09 6.6631e+09 6.71331e+09 6.79443e+09 7.09614e+09 6.71846e+09 7.63118e+09 6.88242e+09 7.01454e+09 
7.00004e+09 6.77874e+09 6.80383e+09 7.00975e+09 7.00242e+09 7.22305e+09 6.67522e+09 6.70448e+09 6.57018e+09 
6.80028e+09 6.7887e+09 6.81653e+09 7.02059e+09 6.90968e+09 7.06376e+09 7.0265e+09 6.73426e+09 6.76545e+09 
6.69108e+09 6.73558e+09 6.63293e+09 6.56472e+09 7.00008e+09 6.85466e+09 6.71592e+09 6.80722e+09 6.59867e+09 
6.99344e+09 6.85281e+09 7.81999e+09 7.31395e+09 6.93257e+09 7.00075e+09 6.6915e+09 6.70777e+09 6.82527e+09 
7.10003e+09 6.75436e+09 6.79374e+09 6.7711e+09 6.85909e+09 6.98572e+09 6.90977e+09 6.7035e+09 6.87571e+09 
7.24482e+09 6.82307e+09 6.70695e+09 6.81321e+09 7.04578e+09 6.9805e+09 6.77376e+09 6.8994e+09 6.79803e+09 
6.98513e+09 6.86565e+09 6.90211e+09 6.69626e+09 6.78114e+09 6.54722e+09 6.82729e+09 6.90201e+09 6.94762e+09 
6.87164e+09 6.77973e+09 6.97544e+09 6.75056e+09 6.86161e+09 6.91286e+09 6.73433e+09 6.45032e+09 6.71103e+09 
6.87252e+09 6.94016e+09 6.91355e+09 6.94194e+09 6.667e+09 6.96018e+09 6.84632e+09 6.62485e+09 6.71169e+09 
6.93631e+09 7.08704e+09 6.76778e+09 7.15021e+09 6.68323e+09 6.65787e+09 6.65987e+09 6.69259e+09 6.6377e+09 
7.08807e+09 6.80068e+09 6.54121e+09 6.80149e+09 6.74099e+09 6.7743e+09 7.09259e+09 7.31118e+09 7.08996e+09 
7.02971e+09 6.90195e+09 6.91799e+09 6.65104e+09 6.84101e+09 6.65907e+09 6.76406e+09 7.05206e+09 7.02681e+09 
6.80477e+09 6.66703e+09 6.79479e+09 6.59387e+09 6.79295e+09 7.64069e+09 6.75589e+09 6.71313e+09 6.81031e+09 
6.78707e+09 6.68809e+09 6.66662e+09 6.74893e+09 6.84362e+09 6.87086e+09 6.71009e+09 6.78136e+09 7.42575e+09 
6.95635e+09 6.86452e+09 6.71162e+09 6.8441e+09 6.70309e+09 6.83843e+09 6.94849e+09 6.86323e+09 7.00147e+09 
6.80788e+09 6.75479e+09 6.97432e+09 6.96993e+09 6.84645e+09 6.87125e+09 6.80545e+09 6.98572e+09 6.83756e+09 
6.87067e+09 6.623e+09 7.05439e+09 6.92727e+09 6.80188e+09 6.75016e+09 6.74037e+09 6.80967e+09 6.9029e+09 
6.70433e+09 6.93026e+09 6.9009e+09 6.97001e+09 7.16808e+09 6.97121e+09 6.9508e+09 7.011e+09 6.8761e+09 
7.00392e+09 6.89391e+09 7.12018e+09 6.91044e+09 6.85007e+09 6.98479e+09 6.51003e+09 7.11389e+09 6.99755e+09 
6.72135e+09 6.92184e+09 6.71622e+09 6.73403e+09 6.85013e+09 6.79735e+09 6.84349e+09 7.28406e+09 7.19576e+09 
6.85813e+09 6.70299e+09 6.97327e+09 6.66283e+09 6.64786e+09 6.68917e+09 6.93627e+09 6.91673e+09 7.03867e+09 
6.96072e+09 7.01196e+09 6.91142e+09 6.85641e+09 6.84849e+09 6.82207e+09 6.87993e+09 7.08859e+09 6.79683e+09 
6.89067e+09 6.90686e+09 6.74943e+09 6.68125e+09 6.95748e+09 6.94519e+09 6.9099e+09 6.99829e+09 6.73089e+09 
6.78323e+09 7.10263e+09 6.77347e+09 6.84081e+09 7.05113e+09 6.87825e+09 6.90201e+09 7.03763e+09 6.59889e+09 
6.79877e+09 6.79066e+09 7.00093e+09 6.75079e+09 6.81803e+09 6.72432e+09 6.96993e+09 6.72658e+09 6.96189e+09 
7.18139e+09 7.19535e+09 6.77885e+09 7.18258e+09 6.75454e+09 6.87747e+09 6.93943e+09 6.79461e+09 6.91131e+09 
7.08772e+09 7.07624e+09 6.81273e+09 6.91424e+09 6.78603e+09 6.93918e+09 7.01111e+09 7.06323e+09 7.14885e+09 
6.8798e+09 6.76362e+09 6.9722e+09 6.76312e+09 6.68571e+09 6.68641e+09 6.82877e+09 6.61829e+09 6.8154e+09 
6.66152e+09 7.20625e+09 7.29402e+09 6.93584e+09 7.20392e+09 6.81545e+09 6.97986e+09 6.69538e+09 7.0781e+09 
6.67343e+09 6.77523e+09 6.64295e+09 6.76113e+09 6.86931e+09 6.93578e+09 7.07257e+09 7.10114e+09 6.93535e+09 
6.89121e+09 7.15886e+09 6.73274e+09 6.71998e+09 6.93412e+09 6.99962e+09 6.92345e+09 6.66289e+09 6.77931e+09 
6.60396e+09 6.6385e+09 6.52199e+09 6.64106e+09 6.8632e+09 6.94196e+09 6.85225e+09 6.85178e+09 6.6543e+09 
7.00017e+09 6.98168e+09 6.78317e+09 7.06355e+09 6.99828e+09 6.93382e+09 6.65435e+09 6.65804e+09 6.81907e+09 
6.99622e+09 6.69787e+09 7.11763e+09 6.76921e+09 7.04589e+09 7.16757e+09 6.83837e+09 6.69749e+09 6.76572e+09 
7.08292e+09 6.7631e+09 7.09744e+09 6.99946e+09 6.72431e+09 6.61796e+09 6.67623e+09 6.89444e+09 6.86535e+09 
6.98562e+09 7.20529e+09 6.74863e+09 6.80849e+09 6.72656e+09 6.7741e+09 6.67743e+09 6.72027e+09 6.72573e+09 
6.76057e+09 6.71947e+09 6.96851e+09 6.71489e+09 7.0356e+09 6.61835e+09 6.62863e+09 7.0271e+09 6.82695e+09 
6.71763e+09 6.97167e+09 6.84057e+09 6.62843e+09 6.98883e+09 6.94902e+09 7.13697e+09 7.02258e+09 7.1699e+09 
6.73471e+09 6.76178e+09 6.87272e+09 7.0597e+09 7.07235e+09 6.90165e+09 6.83471e+09 6.83106e+09 6.66062e+09 
6.96612e+09 6.73303e+09 6.99427e+09 6.71101e+09 6.66449e+09 7.08431e+09 6.89055e+09 7.05079e+09 6.92616e+09 
6.91026e+09 6.59338e+09 6.76403e+09 6.71075e+09 6.57505e+09 6.78716e+09 6.77436e+09 7.03901e+09 6.73632e+09 
6.94452e+09 6.83832e+09 7.22064e+09 6.87979e+09 7.39944e+09 7.07089e+09 6.7265e+09 6.91554e+09 6.76763e+09 
6.80888e+09 6.64496e+09 6.90234e+09 7.6285e+09 6.81542e+09 6.73761e+09 7.0046e+09 6.94278e+09 6.9977e+09 
7.08126e+09 6.69422e+09 6.40033e+09 6.81524e+09 6.43738e+09 6.71909e+09 6.87638e+09 6.85545e+09 7.25603e+09 
7.21159e+09 6.86362e+09 6.73843e+09 6.96313e+09 6.71272e+09 6.70054e+09 6.8239e+09 6.9089e+09 7.02458e+09 
7.21791e+09 7.43566e+09 6.72942e+09 6.91113e+09 6.72147e+09 6.97017e+09 6.60319e+09 6.87383e+09 6.7616e+09 
6.91086e+09 6.88042e+09 7.17664e+09 6.64745e+09 6.75184e+09 6.73466e+09 6.7853e+09 6.63664e+09 6.87324e+09 
6.62935e+09 6.6972e+09 6.74883e+09 6.98682e+09 6.78047e+09 6.60495e+09 6.76936e+09 6.75771e+09 7.02114e+09 
6.73837e+09 6.72379e+09 7.07446e+09 7.05024e+09 6.94524e+09 6.99707e+09 7.18071e+09 6.67534e+09 6.70371e+09 
6.70465e+09 6.74645e+09 6.73863e+09 7.22669e+09 7.06251e+09 6.8343e+09 6.82004e+09 7.11107e+09 6.53132e+09 
6.91062e+09 6.50177e+09 6.72934e+09 6.88901e+09 6.90972e+09 7.19954e+09 6.99667e+09 6.86679e+09 6.66215e+09 
6.73819e+09 6.59674e+09 7.12749e+09 7.24385e+09 6.68446e+09 6.71269e+09 6.84615e+09 6.84542e+09 6.93184e+09 
6.75513e+09 6.79308e+09 6.82159e+09 7.09432e+09 6.93166e+09 6.65912e+09 6.803e+09 6.67764e+09 6.76152e+09 
7.11351e+09 6.9026e+09 6.73268e+09 7.08815e+09 6.64314e+09 6.71831e+09 6.85871e+09 6.71825e+09 6.7571e+09 
7.05306e+09 6.98816e+09 6.9649e+09 6.78374e+09 6.63737e+09 6.70232e+09 6.80308e+09 6.83402e+09 6.69797e+09 
6.98805e+09 6.9441e+09 6.83921e+09 7.03007e+09 7.48881e+09 7.18828e+09 7.15825e+09 6.60943e+09 6.71207e+09 
6.85791e+09 6.78378e+09 6.79868e+09 6.75501e+09 6.67141e+09 6.53332e+09 6.61139e+09 7.15196e+09 6.82731e+09 
6.84967e+09 6.90544e+09 6.95783e+09 6.60525e+09 6.50465e+09 6.70215e+09 6.62135e+09 6.59073e+09 6.72747e+09 
6.60473e+09 6.72862e+09 6.79269e+09 6.60939e+09 6.90073e+09 6.9559e+09 6.68746e+09 6.73662e+09 6.78998e+09 
6.70895e+09 6.86227e+09 7.00032e+09 6.79241e+09 6.59747e+09 6.66381e+09 6.69157e+09 6.74647e+09 6.64006e+09 
6.76035e+09 6.72432e+09 6.84154e+09 7.12784e+09 6.64653e+09 6.94496e+09 6.96839e+09 6.81282e+09 6.90837e+09 
6.79212e+09 6.84643e+09 6.66376e+09 6.71398e+09 6.84536e+09 6.69525e+09 7.10439e+09 6.86384e+09 6.91849e+09 
6.81718e+09 6.79256e+09 6.86998e+09 6.86776e+09 6.90536e+09 6.74366e+09 6.85629e+09 6.77636e+09 6.8392e+09 
6.65272e+09 6.94978e+09 6.46411e+09 6.56094e+09 6.50701e+09 6.61634e+09 7.52802e+09 6.95226e+09 6.69316e+09 
6.95717e+09 6.6514e+09 6.83178e+09 6.87482e+09 7.00608e+09 6.71593e+09 6.80724e+09 6.67721e+09 7.17088e+09 
7.04845e+09 6.81762e+09 6.75596e+09 7.02361e+09 7.24357e+09 6.93924e+09 6.7211e+09 7.03402e+09 6.76071e+09 
6.68956e+09 6.75838e+09 6.99464e+09 6.74595e+09 6.64659e+09 6.66775e+09 6.5992e+09 6.55012e+09 6.60291e+09 
6.57939e+09 6.79018e+09 6.89158e+09 6.76912e+09 6.60765e+09 6.57283e+09 6.6027e+09 6.8452e+09 6.66188e+09 
7.13065e+09 6.93011e+09 6.56798e+09 6.93882e+09 7.06796e+09 6.83975e+09 6.90338e+09 6.77224e+09 7.33947e+09 
6.88711e+09 6.84562e+09 7.08374e+09 7.07334e+09 6.67434e+09 6.84745e+09 6.73644e+09 6.80835e+09 6.67566e+09 
6.62584e+09 6.60714e+09 6.61031e+09 6.72597e+09 6.7186e+09 6.81675e+09 6.92501e+09 6.88803e+09 6.63509e+09 
6.72238e+09 6.57135e+09 6.79496e+09 6.7977e+09 7.06796e+09 6.8271e+09 6.85509e+09 6.88141e+09 6.84222e+09 
6.53968e+09 6.62315e+09 6.68656e+09 6.78665e+09 6.82586e+09 6.74686e+09 6.82539e+09 6.99248e+09 6.8886e+09 
6.75238e+09 7.08126e+09 6.79299e+09 6.86622e+09 6.97642e+09 6.93834e+09 6.95372e+09 7.09699e+09 6.85784e+09 
6.94896e+09 6.70931e+09 6.976e+09 6.96412e+09 6.84326e+09 6.93753e+09 6.77717e+09 6.6495e+09 6.82848e+09 
6.7893e+09 6.93938e+09 6.77631e+09 6.86915e+09 7.13946e+09 7.04222e+09 6.79735e+09 6.68106e+09 7.08219e+09 
6.93107e+09 6.74704e+09 6.92458e+09 6.76425e+09 6.76895e+09 6.69104e+09 6.68528e+09 7.08911e+09 6.94592e+09 
6.73385e+09 6.71356e+09 6.59666e+09 6.54757e+09 6.71337e+09 6.7757e+09 6.68121e+09 6.93415e+09 7.49644e+09 
6.61746e+09 6.51403e+09 6.70937e+09 6.68887e+09 6.8146e+09 6.93333e+09 6.88975e+09 6.56202e+09 6.77069e+09 
7.49162e+09 6.8918e+09 6.79516e+09 6.70908e+09 6.84554e+09 6.88475e+09 6.87672e+09 6.80366e+09 6.91773e+09 
6.75527e+09 6.76487e+09 6.68873e+09 6.95992e+09 6.47829e+09 6.74966e+09 6.69437e+09 7.06363e+09 6.83601e+09 
6.52036e+09 6.56132e+09 6.72926e+09 6.74153e+09 7.28696e+09 6.79981e+09 6.75753e+09 6.58124e+09 6.76398e+09 
6.92907e+09 6.75656e+09 6.58601e+09 6.54814e+09 6.79663e+09 7.07544e+09 6.99283e+09 7.13327e+09 7.269e+09 
7.021e+09 6.82252e+09 6.74829e+09 6.98728e+09 6.99471e+09 6.82569e+09 6.78962e+09 6.7726e+09 6.80862e+09 
6.67409e+09 6.64959e+09 6.61277e+09 6.42728e+09 6.43718e+09 6.68327e+09 6.92747e+09 6.54976e+09 6.78019e+09 
6.97892e+09 6.93509e+09 6.98737e+09 6.94915e+09 6.87066e+09 7.15591e+09 7.23275e+09 7.15597e+09 6.82033e+09 
6.79673e+09 6.91308e+09 6.68923e+09 6.70249e+09 6.90126e+09 6.88059e+09 6.77374e+09 7.34573e+09 7.04246e+09 
6.77518e+09 7.03251e+09 7.01942e+09 7.06911e+09 6.81065e+09 6.90215e+09 6.60732e+09 6.47586e+09 6.51563e+09 
6.71414e+09 6.79944e+09 6.74949e+09 6.56479e+09 6.9021e+09 7.1916e+09 7.04587e+09 6.65287e+09 7.0168e+09 
6.87052e+09 6.92486e+09 6.78366e+09 6.80857e+09 6.83616e+09 6.70174e+09 6.63182e+09 6.6245e+09 6.97404e+09 
7.28592e+09 6.63956e+09 7.05068e+09 7.2158e+09 6.97286e+09 6.67944e+09 6.9066e+09 7.10202e+09 6.83923e+09 
6.78456e+09 6.87147e+09 6.42978e+09 6.59906e+09 6.54874e+09 6.57308e+09 6.59057e+09 6.75347e+09 6.64037e+09 
7.02338e+09 7.4e+09 6.74257e+09 6.5052e+09 6.8595e+09 6.75074e+09 6.99227e+09 6.73451e+09 6.72395e+09 
6.93078e+09 6.92796e+09 6.77367e+09 6.62932e+09 6.6663e+09 6.97137e+09 6.67046e+09 7.18762e+09 7.24705e+09 
6.81012e+09 6.77573e+09 6.90406e+09 6.8169e+09 7.075e+09 6.81105e+09 6.63195e+09 6.45655e+09 6.57164e+09 
6.77451e+09 6.56066e+09 6.67266e+09 6.99325e+09 6.5386e+09 6.73349e+09 6.83152e+09 6.6644e+09 6.52338e+09 
6.78623e+09 6.77375e+09 6.94022e+09 6.86451e+09 7.01781e+09 6.76501e+09 7.09333e+09 6.70485e+09 6.72102e+09 