# vtk DataFile Version 3.0
vtk output
ASCII
DATASET RECTILINEAR_GRID
FIELD FieldData 4
MeshName 1 1 string
mesh

CYCLE 1 1 int
10 
TIME 1 1 double
10 
avtOriginalBounds 1 6 double
0 1.95312 0.488281 0.732422 0 1.95312 
DIMENSIONS 33 5 33
X_COORDINATES 33 double
0 0.0610352 0.12207 0.183105 0.244141 0.305176 0.366211 0.427246 0.488281 
0.549316 0.610352 0.671387 0.732422 0.793457 0.854492 0.915527 0.976562 1.0376 
1.09863 1.15967 1.2207 1.28174 1.34277 1.40381 1.46484 1.52588 1.58691 
1.64795 1.70898 1.77002 1.83105 1.89209 1.95312 
Y_COORDINATES 5 double
0.488281 0.549316 0.610352 0.671387 0.732422 
Z_COORDINATES 33 double
0 0.0610352 0.12207 0.183105 0.244141 0.305176 0.366211 0.427246 0.488281 
0.549316 0.610352 0.671387 0.732422 0.793457 0.854492 0.915527 0.976562 1.0376 
1.09863 1.15967 1.2207 1.28174 1.34277 1.40381 1.46484 1.52588 1.58691 
1.64795 1.70898 1.77002 1.83105 1.89209 1.95312 
CELL_DATA 4096
SCALARS simdata double
LOOKUP_TABLE default
6.89106e+09 6.77169e+09 7.13753e+09 6.87099e+09 6.92393e+09 7.10953e+09 6.82275e+09 7.21682e+09 6.61767e+09 
6.60114e+09 6.68193e+09 6.75183e+09 6.73233e+09 6.62994e+09 6.93026e+09 6.81896e+09 6.92809e+09 6.6241e+09 
6.9445e+09 6.77347e+09 6.75072e+09 6.85362e+09 6.82879e+09 6.84087e+09 6.85744e+09 7.02145e+09 7.14756e+09 
6.80879e+09 6.80372e+09 7.16176e+09 7.11783e+09 6.98927e+09 6.87271e+09 6.75284e+09 6.82786e+09 6.94589e+09 
6.64595e+09 7.34892e+09 6.91804e+09 7.11586e+09 7.01837e+09 7.00591e+09 6.86284e+09 6.77165e+09 6.71044e+09 
6.84462e+09 6.79021e+09 6.78084e+09 6.908e+09 7.14065e+09 6.6577e+09 6.6855e+09 7.06414e+09 6.82612e+09 
7.07793e+09 7.11915e+09 6.88925e+09 6.79466e+09 7.19137e+09 7.06091e+09 6.86557e+09 6.94599e+09 6.83462e+09 
7.0284e+09 6.68696e+09 7.01108e+09 6.705e+09 6.7764e+09 6.81676e+09 6.89243e+09 6.94663e+09 7.18342e+09 
6.78478e+09 6.8227e+09 6.9427e+09 6.85333e+09 6.88252e+09 6.80301e+09 6.89967e+09 6.79588e+09 6.83265e+09 
6.89624e+09 6.97615e+09 6.72777e+09 6.98313e+09 6.98608e+09 7.02824e+09 7.09772e+09 6.70351e+09 6.92e+09 
7.00385e+09 6.84814e+09 6.97342e+09 6.83317e+09 6.85707e+09 6.95731e+09 6.75456e+09 6.82357e+09 6.94746e+09 
6.82905e+09 7.14499e+09 7.38234e+09 6.92437e+09 6.95904e+09 6.83842e+09 6.80359e+09 7.09759e+09 6.83864e+09 
6.91684e+09 6.79032e+09 6.97265e+09 6.90393e+09 6.66213e+09 6.73757e+09 6.73469e+09 6.73501e+09 7.15152e+09 
7.03207e+09 7.04699e+09 6.77786e+09 6.69295e+09 7.0614e+09 6.98489e+09 6.8159e+09 6.89261e+09 6.73988e+09 
6.67002e+09 7.00667e+09 6.93987e+09 6.88211e+09 6.81739e+09 6.91959e+09 7.18689e+09 6.94777e+09 6.80373e+09 
6.8253e+09 6.90307e+09 6.73326e+09 7.01631e+09 6.89148e+09 6.57563e+09 6.70578e+09 7.0971e+09 6.65554e+09 
7.20791e+09 6.91616e+09 6.93935e+09 7.12491e+09 6.80104e+09 7.03224e+09 6.99781e+09 7.01101e+09 7.10164e+09 
6.96587e+09 7.14345e+09 7.06058e+09 6.84e+09 6.91814e+09 6.72431e+09 6.78148e+09 6.99229e+09 6.93285e+09 
6.85601e+09 6.9604e+09 7.07702e+09 7.11169e+09 6.70679e+09 6.94334e+09 6.90063e+09 6.70777e+09 7.0458e+09 
6.7857e+09 6.67174e+09 6.61488e+09 6.80983e+09 6.80275e+09 7.12028e+09 6.98914e+09 7.13891e+09 6.85964e+09 
6.65226e+09 7.02411e+09 6.8337e+09 7.03819e+09 7.10265e+09 6.76759e+09 6.85892e+09 6.76616e+09 7.20592e+09 
6.94884e+09 6.80299e+09 6.85147e+09 7.20959e+09 7.0214e+09 6.97663e+09 6.90019e+09 6.87923e+09 6.96266e+09 
6.88162e+09 6.92382e+09 6.9096e+09 6.70979e+09 7.17941e+09 6.61277e+09 6.80314e+09 6.70463e+09 6.74877e+09 
6.80767e+09 6.54069e+09 6.63335e+09 7.09032e+09 6.92329e+09 7.2827e+09 7.08964e+09 6.86678e+09 7.10853e+09 
6.93766e+09 7.25729e+09 7.04774e+09 6.91599e+09 7.235e+09 7.17634e+09 7.02677e+09 6.93641e+09 7.06673e+09 
6.87656e+09 7.67881e+09 6.83325e+09 6.94545e+09 7.10001e+09 7.27285e+09 7.06535e+09 6.80711e+09 6.72992e+09 
6.89555e+09 6.67891e+09 6.91825e+09 6.97894e+09 6.95577e+09 6.9625e+09 6.84242e+09 6.80095e+09 6.97156e+09 
6.90369e+09 6.93528e+09 7.27468e+09 7.25395e+09 7.1607e+09 7.02511e+09 7.10245e+09 7.38002e+09 7.00269e+09 
6.91833e+09 7.26227e+09 6.68717e+09 6.81154e+09 6.99339e+09 7.01208e+09 6.91445e+09 7.10057e+09 7.27904e+09 
7.0298e+09 6.96643e+09 6.87704e+09 7.02628e+09 6.9442e+09 6.85952e+09 6.98086e+09 6.96683e+09 6.64159e+09 
6.89478e+09 6.77166e+09 7.06066e+09 6.78291e+09 6.88894e+09 6.83326e+09 6.85598e+09 6.89763e+09 6.89862e+09 
7.1802e+09 7.35747e+09 7.40043e+09 7.19389e+09 7.22433e+09 6.97006e+09 6.96494e+09 6.74163e+09 6.99625e+09 
6.89935e+09 6.80025e+09 6.64471e+09 6.87702e+09 7.17269e+09 6.95689e+09 6.68285e+09 7.23661e+09 6.61043e+09 
6.7326e+09 7.09878e+09 7.14549e+09 7.01485e+09 6.80948e+09 6.72788e+09 6.99753e+09 7.10015e+09 6.98063e+09 
7.11686e+09 6.87448e+09 6.97231e+09 7.39381e+09 6.89433e+09 7.30225e+09 7.21097e+09 7.30439e+09 7.02682e+09 
6.87895e+09 6.66704e+09 6.69814e+09 6.69046e+09 6.89033e+09 7.26564e+09 7.3228e+09 6.75879e+09 6.83958e+09 
6.95249e+09 7.43177e+09 6.96353e+09 7.08079e+09 7.15517e+09 6.89418e+09 7.00459e+09 6.81762e+09 6.55185e+09 
6.76072e+09 7.01785e+09 6.77702e+09 6.78375e+09 7.00915e+09 7.10867e+09 7.32262e+09 6.88375e+09 6.89841e+09 
6.90677e+09 6.98736e+09 6.76212e+09 7.03686e+09 7.03864e+09 6.95647e+09 6.92111e+09 6.64881e+09 6.89386e+09 
7.00003e+09 7.1348e+09 7.23573e+09 6.8769e+09 6.96152e+09 6.78571e+09 6.88276e+09 6.80286e+09 6.93582e+09 
7.0535e+09 6.97429e+09 6.88261e+09 6.65197e+09 6.83461e+09 6.99937e+09 7.00208e+09 6.68301e+09 7.03366e+09 
6.93414e+09 6.93033e+09 6.8779e+09 7.22824e+09 7.48558e+09 7.00713e+09 7.25201e+09 7.31789e+09 7.02592e+09 
7.04872e+09 7.15708e+09 6.95171e+09 7.0867e+09 6.98745e+09 7.10178e+09 6.63651e+09 6.74301e+09 6.74585e+09 
7.0738e+09 7.17252e+09 7.46213e+09 6.97559e+09 7.02572e+09 6.95879e+09 6.85622e+09 6.55564e+09 6.73908e+09 
6.98486e+09 7.10178e+09 6.89255e+09 7.00188e+09 6.86955e+09 7.27917e+09 7.08423e+09 7.07517e+09 6.99825e+09 
6.97873e+09 7.03861e+09 7.48157e+09 7.30586e+09 7.80613e+09 7.12542e+09 7.22291e+09 7.70977e+09 7.16422e+09 
7.13867e+09 7.32393e+09 6.71751e+09 6.89412e+09 7.08622e+09 6.56163e+09 7.22788e+09 6.82948e+09 7.01093e+09 
6.71576e+09 6.96808e+09 7.27876e+09 6.93391e+09 7.20472e+09 7.15623e+09 6.66536e+09 6.61482e+09 7.11216e+09 
7.08238e+09 7.10483e+09 6.9047e+09 6.97068e+09 7.22967e+09 7.2943e+09 7.043e+09 7.04388e+09 7.36898e+09 
7.5986e+09 6.89853e+09 6.7406e+09 7.18717e+09 7.13852e+09 7.22321e+09 7.29907e+09 6.96327e+09 7.31726e+09 
6.75973e+09 7.02184e+09 6.81304e+09 6.75431e+09 6.79129e+09 6.94474e+09 6.98447e+09 7.3283e+09 6.92931e+09 
6.85687e+09 6.66267e+09 6.79398e+09 6.77482e+09 6.79879e+09 7.05474e+09 7.1072e+09 7.16876e+09 6.95332e+09 
7.35082e+09 6.83833e+09 7.3923e+09 7.11358e+09 6.90939e+09 7.03774e+09 6.91656e+09 6.82909e+09 6.99084e+09 
6.85322e+09 6.92373e+09 6.76867e+09 7.26221e+09 7.08073e+09 6.93609e+09 7.05874e+09 7.25891e+09 6.6776e+09 
7.06114e+09 6.77063e+09 6.76073e+09 6.97811e+09 6.88726e+09 6.78279e+09 6.72443e+09 6.60067e+09 6.77698e+09 
6.71607e+09 6.90601e+09 7.16892e+09 7.01659e+09 6.99671e+09 7.96152e+09 7.38523e+09 6.93312e+09 6.87638e+09 
6.98806e+09 6.95175e+09 6.83706e+09 7.06123e+09 6.94285e+09 7.00428e+09 7.08129e+09 7.11309e+09 6.67813e+09 
6.98586e+09 6.83348e+09 6.94321e+09 7.47056e+09 7.24151e+09 6.72018e+09 6.76865e+09 6.84579e+09 6.77733e+09 
6.66459e+09 6.7888e+09 7.39536e+09 7.44739e+09 7.28793e+09 7.36314e+09 7.02236e+09 7.204e+09 7.21918e+09 
7.22468e+09 6.92487e+09 6.93331e+09 7.24858e+09 7.09304e+09 7.05192e+09 7.21818e+09 7.09337e+09 7.49702e+09 
7.25745e+09 6.84264e+09 6.72063e+09 6.84e+09 7.0231e+09 7.0555e+09 6.77087e+09 6.79566e+09 7.49695e+09 
6.86833e+09 7.18542e+09 6.84879e+09 7.09642e+09 7.11035e+09 6.66574e+09 7.0049e+09 7.27506e+09 7.00858e+09 
6.91219e+09 7.10656e+09 7.07336e+09 6.95753e+09 6.94804e+09 6.95155e+09 6.82543e+09 6.84832e+09 6.96123e+09 
6.90702e+09 6.85883e+09 6.78594e+09 6.74461e+09 6.87746e+09 7.01272e+09 6.84506e+09 6.85742e+09 6.79828e+09 
6.92949e+09 6.88266e+09 6.75788e+09 7.22966e+09 7.16693e+09 6.68083e+09 6.90345e+09 6.87753e+09 6.99031e+09 
6.87903e+09 6.93144e+09 6.88065e+09 6.89698e+09 6.56093e+09 6.8476e+09 7.04903e+09 7.34927e+09 7.23367e+09 
7.26233e+09 7.16472e+09 7.37346e+09 6.97814e+09 6.96292e+09 7.10289e+09 7.02622e+09 6.75671e+09 6.76936e+09 
6.74912e+09 6.70934e+09 6.972e+09 6.69446e+09 6.78637e+09 7.01208e+09 6.95394e+09 6.81697e+09 6.84588e+09 
6.77658e+09 6.7569e+09 6.58814e+09 6.81921e+09 6.85095e+09 6.8012e+09 6.42374e+09 6.76585e+09 6.69927e+09 
6.67171e+09 6.77243e+09 6.86448e+09 6.97937e+09 7.02497e+09 6.89035e+09 7.02395e+09 7.15511e+09 7.08743e+09 
7.0287e+09 6.78923e+09 6.7657e+09 6.71332e+09 6.84814e+09 7.32222e+09 6.85603e+09 6.67841e+09 6.86839e+09 
7.22376e+09 6.5285e+09 6.64661e+09 6.79501e+09 6.6601e+09 6.87213e+09 6.95026e+09 6.95311e+09 7.02829e+09 
6.58407e+09 6.97849e+09 6.89162e+09 7.22011e+09 7.34855e+09 7.19175e+09 7.12758e+09 6.78198e+09 7.21139e+09 
7.2699e+09 7.10882e+09 6.95474e+09 6.89224e+09 6.94084e+09 7.01527e+09 7.23032e+09 7.0166e+09 7.05074e+09 
6.94193e+09 6.76269e+09 6.87361e+09 6.88055e+09 6.78428e+09 6.8972e+09 6.71555e+09 6.73449e+09 6.58297e+09 
6.74702e+09 6.82815e+09 7.17883e+09 6.82321e+09 6.84287e+09 6.55782e+09 6.95417e+09 6.9705e+09 7.31707e+09 
7.27279e+09 6.85202e+09 6.86396e+09 7.11337e+09 7.05778e+09 7.2091e+09 6.81996e+09 6.99355e+09 7.24609e+09 
6.9246e+09 6.91484e+09 6.854e+09 6.92544e+09 6.93454e+09 6.75597e+09 6.76431e+09 6.5729e+09 6.7226e+09 
7.03383e+09 6.98413e+09 6.81311e+09 6.98825e+09 6.67363e+09 7.09249e+09 6.71322e+09 6.68274e+09 6.70662e+09 
7.58508e+09 6.74887e+09 6.99804e+09 6.58572e+09 7.0075e+09 6.66811e+09 6.74162e+09 7.06805e+09 6.83642e+09 
7.2434e+09 7.07961e+09 7.32736e+09 7.13588e+09 7.2201e+09 6.98934e+09 6.87516e+09 7.20796e+09 6.80536e+09 
6.68958e+09 6.76229e+09 6.62858e+09 6.79865e+09 6.81071e+09 6.82544e+09 6.7811e+09 6.67876e+09 6.63534e+09 
6.71839e+09 6.70255e+09 6.80939e+09 7.08634e+09 6.91035e+09 7.37454e+09 7.0343e+09 6.85436e+09 6.6733e+09 
7.07051e+09 6.84928e+09 6.82058e+09 6.93975e+09 6.91337e+09 7.04128e+09 7.03212e+09 6.94248e+09 6.95798e+09 
6.92153e+09 7.40697e+09 7.01923e+09 6.83414e+09 6.66386e+09 6.59101e+09 6.9369e+09 7.21621e+09 6.81208e+09 
6.78523e+09 6.92975e+09 6.6359e+09 6.60334e+09 6.52665e+09 6.76561e+09 6.85717e+09 6.93343e+09 6.78814e+09 
6.99409e+09 6.93633e+09 7.07452e+09 7.46404e+09 6.73517e+09 7.09691e+09 7.18363e+09 6.65067e+09 7.14552e+09 
7.38247e+09 7.30561e+09 6.94289e+09 6.87275e+09 6.94443e+09 6.84368e+09 6.92277e+09 6.99781e+09 6.9406e+09 
7.10551e+09 6.87507e+09 6.96537e+09 7.02612e+09 6.89276e+09 6.66333e+09 6.90995e+09 7.0518e+09 6.52985e+09 
6.51037e+09 6.65354e+09 6.83797e+09 6.8377e+09 6.81058e+09 7.05191e+09 7.14579e+09 6.88054e+09 7.22066e+09 
6.59007e+09 7.04788e+09 6.77002e+09 6.9953e+09 7.06109e+09 7.05189e+09 6.86516e+09 6.87804e+09 6.82077e+09 
6.82999e+09 6.94591e+09 6.83892e+09 6.91635e+09 6.84903e+09 6.87287e+09 7.16272e+09 7.27185e+09 6.85162e+09 
6.82903e+09 6.94917e+09 7.06953e+09 6.97172e+09 6.49891e+09 6.63492e+09 6.84171e+09 6.81686e+09 7.00129e+09 
6.73697e+09 6.79174e+09 6.73013e+09 7.05234e+09 6.76257e+09 6.96902e+09 7.0375e+09 7.21878e+09 7.14415e+09 
7.16076e+09 7.14937e+09 7.31101e+09 6.94559e+09 6.80363e+09 6.60748e+09 6.96271e+09 6.90738e+09 7.03904e+09 
6.96196e+09 6.6924e+09 6.87653e+09 7.06228e+09 6.76744e+09 6.88519e+09 6.66158e+09 7.13958e+09 6.74267e+09 
6.8013e+09 7.04552e+09 6.70721e+09 6.85041e+09 7.47513e+09 7.37342e+09 7.14516e+09 6.77505e+09 6.89338e+09 
6.84374e+09 6.77062e+09 6.77796e+09 6.87299e+09 7.09091e+09 7.03607e+09 7.17394e+09 6.93316e+09 6.69322e+09 
6.99106e+09 6.87985e+09 7.39699e+09 7.29394e+09 7.19468e+09 6.92762e+09 6.92364e+09 6.67931e+09 6.82993e+09 
6.85662e+09 6.73305e+09 6.89292e+09 6.92124e+09 6.82241e+09 6.58055e+09 6.39671e+09 6.64227e+09 6.89041e+09 
6.7344e+09 6.97659e+09 6.71831e+09 6.63684e+09 6.81421e+09 7.09706e+09 6.94043e+09 6.89236e+09 6.6593e+09 
6.56416e+09 7.03545e+09 7.12357e+09 7.45217e+09 6.78424e+09 6.92413e+09 6.93937e+09 6.76816e+09 6.96264e+09 
6.78213e+09 6.86923e+09 6.82229e+09 7.0427e+09 6.81143e+09 6.80202e+09 7.17707e+09 6.85897e+09 7.03939e+09 
7.20127e+09 6.78284e+09 6.45318e+09 6.66594e+09 6.95873e+09 6.81529e+09 6.58826e+09 6.91742e+09 6.82916e+09 
6.89291e+09 7.20513e+09 7.09422e+09 6.90194e+09 6.92345e+09 6.63019e+09 6.88852e+09 6.96568e+09 7.25434e+09 
6.82332e+09 6.71983e+09 7.16548e+09 7.11314e+09 6.92651e+09 7.30194e+09 6.83585e+09 7.12487e+09 7.22152e+09 
7.12055e+09 6.79088e+09 6.87177e+09 6.8079e+09 7.08866e+09 7.21728e+09 7.00228e+09 6.64085e+09 6.92854e+09 
7.05218e+09 6.90405e+09 6.85901e+09 6.8517e+09 6.73345e+09 7.01584e+09 6.8333e+09 6.69262e+09 6.73101e+09 
7.27748e+09 7.10485e+09 7.02144e+09 6.7986e+09 6.75475e+09 6.65718e+09 6.93716e+09 6.9859e+09 6.90384e+09 
6.89428e+09 7.21283e+09 6.89878e+09 6.81169e+09 6.74001e+09 6.7472e+09 6.58878e+09 6.83935e+09 7.15322e+09 
6.72821e+09 6.95245e+09 7.023e+09 6.62418e+09 6.69077e+09 6.73213e+09 6.69076e+09 7.23062e+09 7.17684e+09 
6.78871e+09 6.66815e+09 6.85749e+09 6.71511e+09 6.79847e+09 7.31063e+09 7.18277e+09 6.67793e+09 6.85633e+09 
6.76007e+09 6.78158e+09 7.35315e+09 7.1485e+09 7.43741e+09 7.35817e+09 6.97872e+09 6.8627e+09 7.22978e+09 
6.57732e+09 7.05018e+09 6.67493e+09 7.03237e+09 6.93247e+09 6.8191e+09 6.90806e+09 6.93349e+09 6.88822e+09 
6.67754e+09 6.90243e+09 7.27477e+09 7.02259e+09 6.95854e+09 6.81613e+09 6.91459e+09 6.88428e+09 6.7992e+09 
7.10273e+09 6.54985e+09 6.63329e+09 6.73645e+09 6.76596e+09 7.24049e+09 6.81803e+09 7.02263e+09 6.866e+09 
6.87796e+09 6.72093e+09 7.03248e+09 6.74236e+09 6.82679e+09 7.2117e+09 6.59556e+09 6.84761e+09 6.8326e+09 
6.92405e+09 7.17761e+09 6.91043e+09 7.1306e+09 7.00074e+09 7.10862e+09 7.18288e+09 6.9003e+09 6.96622e+09 
6.75239e+09 7.08348e+09 7.29906e+09 6.80379e+09 6.72178e+09 6.7992e+09 6.73602e+09 7.00767e+09 6.74625e+09 
6.86525e+09 7.22794e+09 7.22577e+09 6.78064e+09 6.99617e+09 6.77966e+09 6.81901e+09 6.77668e+09 6.49133e+09 
7.02507e+09 6.75793e+09 6.90743e+09 6.79458e+09 6.65652e+09 6.9973e+09 7.01583e+09 6.83192e+09 6.66055e+09 
6.56785e+09 6.82094e+09 6.84155e+09 6.81332e+09 6.93998e+09 6.85068e+09 7.2336e+09 6.8315e+09 7.0493e+09 
6.74487e+09 7.22224e+09 7.25674e+09 6.83184e+09 7.1056e+09 7.09354e+09 6.75939e+09 6.83528e+09 6.9238e+09 
7.22737e+09 7.05571e+09 6.86771e+09 6.8112e+09 6.73924e+09 6.94822e+09 6.88251e+09 6.81109e+09 6.63395e+09 
6.85165e+09 6.9424e+09 6.85923e+09 7.11436e+09 6.84473e+09 6.88685e+09 6.56162e+09 6.91416e+09 6.69185e+09 
7.01675e+09 7.10165e+09 7.12952e+09 6.72173e+09 6.78411e+09 7.088e+09 6.85034e+09 6.96899e+09 6.73142e+09 
6.84107e+09 6.81859e+09 6.69874e+09 6.79915e+09 7.13294e+09 7.02843e+09 7.1693e+09 7.17571e+09 6.61738e+09 
7.20721e+09 7.12842e+09 7.13899e+09 7.00216e+09 6.7538e+09 7.29929e+09 7.00839e+09 6.89073e+09 6.64703e+09 
7.12275e+09 6.85174e+09 6.76375e+09 6.98884e+09 7.10178e+09 6.63928e+09 7.07618e+09 6.60694e+09 6.70782e+09 
6.70501e+09 7.29136e+09 6.814e+09 6.72066e+09 6.57731e+09 6.68854e+09 7.02659e+09 7.36494e+09 7.46517e+09 
6.88999e+09 6.80575e+09 6.94063e+09 6.87228e+09 6.85102e+09 6.63333e+09 6.81491e+09 6.69603e+09 6.56069e+09 
6.6851e+09 6.68242e+09 7.04723e+09 6.95127e+09 6.81124e+09 6.92013e+09 6.63649e+09 6.79211e+09 6.89007e+09 
6.9932e+09 6.89515e+09 6.7151e+09 6.64844e+09 6.55174e+09 6.80695e+09 6.8067e+09 6.96782e+09 7.00087e+09 
6.78847e+09 6.94335e+09 6.69211e+09 6.95173e+09 6.83454e+09 6.94754e+09 6.88235e+09 6.81255e+09 6.6865e+09 
6.64124e+09 6.78945e+09 6.8187e+09 6.89858e+09 7.2718e+09 6.57793e+09 6.916e+09 6.65507e+09 6.70116e+09 
6.99389e+09 6.87352e+09 6.85444e+09 7.07652e+09 6.54947e+09 7.05049e+09 7.0963e+09 7.08947e+09 7.021e+09 
7.04986e+09 6.91545e+09 6.76332e+09 6.77804e+09 6.99038e+09 6.78458e+09 6.77818e+09 7.23642e+09 7.11308e+09 
6.55207e+09 6.97566e+09 7.05495e+09 7.11515e+09 6.90623e+09 6.7992e+09 6.95411e+09 7.09988e+09 7.6901e+09 
7.32283e+09 6.94637e+09 6.8071e+09 7.04541e+09 6.9781e+09 7.14095e+09 6.84265e+09 7.00586e+09 6.89604e+09 
6.94898e+09 7.14723e+09 7.31344e+09 7.36547e+09 7.31363e+09 7.13412e+09 7.1122e+09 6.98779e+09 6.79844e+09 
6.70289e+09 6.67e+09 6.79809e+09 6.70604e+09 6.93359e+09 6.5017e+09 7.02642e+09 7.13454e+09 6.96677e+09 
6.78595e+09 6.87193e+09 6.99187e+09 7.39804e+09 7.36401e+09 6.98998e+09 6.92441e+09 6.88425e+09 6.9109e+09 
6.76218e+09 6.73732e+09 6.67643e+09 6.87984e+09 6.64659e+09 7.1338e+09 7.35995e+09 6.67216e+09 6.65727e+09 
6.65278e+09 6.5086e+09 6.67235e+09 6.55732e+09 6.95068e+09 6.89047e+09 7.51597e+09 7.23692e+09 7.43359e+09 
7.25476e+09 7.36665e+09 7.02935e+09 6.69565e+09 7.03938e+09 6.90758e+09 6.98652e+09 6.86782e+09 6.99285e+09 
6.71143e+09 6.60338e+09 6.88874e+09 7.18223e+09 7.3012e+09 6.71774e+09 6.94408e+09 6.95677e+09 6.87012e+09 
6.69337e+09 6.85819e+09 6.7555e+09 6.78257e+09 6.84283e+09 6.64139e+09 6.59645e+09 6.8519e+09 6.86786e+09 
6.75102e+09 6.93557e+09 7.08714e+09 6.79088e+09 6.91089e+09 7.1243e+09 7.21795e+09 6.79479e+09 6.60029e+09 
6.68694e+09 6.74898e+09 6.74402e+09 6.92538e+09 7.12184e+09 6.99963e+09 7.08934e+09 6.89904e+09 7.00003e+09 
6.89986e+09 6.88418e+09 6.80326e+09 6.84049e+09 7.28955e+09 7.29521e+09 6.99201e+09 6.92865e+09 7.38985e+09 
7.39281e+09 7.05686e+09 6.89148e+09 6.81272e+09 6.56111e+09 6.67504e+09 7.07877e+09 6.84067e+09 7.08507e+09 
6.68638e+09 6.78082e+09 6.83489e+09 6.74311e+09 6.75055e+09 6.87609e+09 6.93797e+09 6.74704e+09 7.09093e+09 
6.88318e+09 6.82999e+09 6.81679e+09 6.93525e+09 6.58464e+09 6.61505e+09 6.92972e+09 7.17724e+09 7.38529e+09 
6.9948e+09 6.85145e+09 6.9314e+09 6.93632e+09 6.98952e+09 7.23026e+09 7.08208e+09 6.79317e+09 7.01151e+09 
6.79348e+09 6.90897e+09 6.81652e+09 6.86146e+09 6.79405e+09 6.64068e+09 6.80769e+09 6.78685e+09 6.8764e+09 
6.96062e+09 6.95825e+09 6.98824e+09 6.78672e+09 6.86073e+09 6.99793e+09 7.24889e+09 6.70834e+09 6.95211e+09 
7.15131e+09 6.78595e+09 7.01955e+09 7.23114e+09 6.94909e+09 7.05907e+09 7.03467e+09 7.0924e+09 7.16853e+09 
6.98543e+09 6.80052e+09 7.26405e+09 6.76816e+09 6.59657e+09 6.68252e+09 6.62782e+09 6.81246e+09 7.07982e+09 
7.00948e+09 7.18751e+09 7.0644e+09 7.07841e+09 6.68697e+09 6.7288e+09 6.8668e+09 6.96468e+09 6.82152e+09 
6.78405e+09 6.67218e+09 6.87361e+09 6.87256e+09 7.05153e+09 7.59416e+09 7.14768e+09 7.0737e+09 6.8669e+09 
6.86036e+09 7.35874e+09 6.80411e+09 6.77014e+09 6.92701e+09 6.86001e+09 6.92087e+09 6.76487e+09 6.73223e+09 
6.76751e+09 7.18717e+09 6.74117e+09 6.77279e+09 6.6623e+09 6.92913e+09 6.93213e+09 6.82159e+09 6.90829e+09 
6.65623e+09 6.87523e+09 6.61652e+09 6.8629e+09 6.62463e+09 6.60844e+09 6.93383e+09 6.81264e+09 6.78568e+09 
6.99963e+09 6.86981e+09 6.98611e+09 7.57226e+09 6.91636e+09 6.75347e+09 7.11173e+09 7.33533e+09 7.25041e+09 
6.83413e+09 6.79404e+09 7.13356e+09 6.82669e+09 6.88175e+09 6.73564e+09 6.86226e+09 7.05969e+09 6.54502e+09 
6.78188e+09 6.7267e+09 6.93163e+09 6.59957e+09 6.51046e+09 6.87628e+09 6.76035e+09 6.9546e+09 6.87965e+09 
6.94522e+09 7.03541e+09 6.78845e+09 6.82863e+09 6.53913e+09 6.68251e+09 6.68304e+09 6.80791e+09 6.79938e+09 
7.03147e+09 6.88923e+09 7.02864e+09 7.10855e+09 6.86994e+09 6.84557e+09 6.98108e+09 6.99581e+09 6.90419e+09 
6.65155e+09 6.82385e+09 6.87469e+09 6.70534e+09 6.71633e+09 6.71302e+09 6.84418e+09 6.82992e+09 6.56752e+09 
6.49456e+09 6.9014e+09 6.82248e+09 6.85977e+09 6.97552e+09 7.01624e+09 7.23043e+09 6.88866e+09 6.97471e+09 
6.7769e+09 6.93808e+09 6.94017e+09 6.63995e+09 6.92508e+09 7.00494e+09 6.85968e+09 6.99317e+09 6.92382e+09 
6.73258e+09 7.07418e+09 6.84085e+09 6.77765e+09 6.92017e+09 7.07044e+09 7.05748e+09 6.72032e+09 6.91445e+09 
6.861e+09 6.75748e+09 6.79691e+09 6.86748e+09 6.69051e+09 6.93075e+09 6.74232e+09 6.96593e+09 6.77703e+09 
6.81857e+09 6.79097e+09 6.85029e+09 6.77521e+09 6.74833e+09 6.9024e+09 7.10236e+09 7.13303e+09 6.6834e+09 
6.71933e+09 6.90538e+09 7.21277e+09 7.08331e+09 7.09097e+09 6.84319e+09 6.77997e+09 7.02975e+09 6.74188e+09 
6.98455e+09 6.90256e+09 6.82048e+09 6.76994e+09 6.93022e+09 6.8593e+09 6.62875e+09 6.82251e+09 6.84648e+09 
6.65997e+09 6.85356e+09 7.04392e+09 6.9128e+09 6.93413e+09 7.18291e+09 6.83032e+09 6.77213e+09 6.64107e+09 
6.68954e+09 6.69109e+09 6.75564e+09 6.59561e+09 6.75202e+09 7.2223e+09 7.18733e+09 6.91236e+09 6.7441e+09 
6.87557e+09 6.83616e+09 7.01581e+09 7.04006e+09 7.04923e+09 6.97231e+09 6.83581e+09 6.86726e+09 7.04053e+09 
6.7118e+09 6.5173e+09 6.71441e+09 6.78021e+09 6.70505e+09 6.67618e+09 7.19787e+09 6.69637e+09 6.79728e+09 
6.83887e+09 6.74193e+09 6.89808e+09 6.87426e+09 6.85504e+09 6.78299e+09 6.78704e+09 6.46124e+09 6.6308e+09 
7.03926e+09 7.2876e+09 7.44713e+09 6.61865e+09 6.87054e+09 7.53391e+09 7.00022e+09 7.31101e+09 7.07976e+09 
6.89018e+09 6.92268e+09 6.54232e+09 6.87274e+09 6.75304e+09 6.82783e+09 6.70369e+09 6.50585e+09 6.78576e+09 
6.77907e+09 6.62001e+09 6.72621e+09 6.82479e+09 6.98529e+09 6.75823e+09 7.07144e+09 6.8392e+09 6.51492e+09 
6.84519e+09 6.92386e+09 6.85934e+09 6.63629e+09 6.82836e+09 6.67266e+09 6.82481e+09 7.00787e+09 6.8907e+09 
6.69723e+09 7.13902e+09 7.08443e+09 6.80678e+09 6.84772e+09 6.62759e+09 6.73023e+09 6.67677e+09 6.54516e+09 
6.82847e+09 6.75032e+09 6.85328e+09 6.85647e+09 6.81161e+09 6.59942e+09 7.13369e+09 6.87554e+09 7.04884e+09 
6.6995e+09 6.72906e+09 6.92327e+09 6.72056e+09 6.60064e+09 6.7458e+09 6.92181e+09 6.71074e+09 6.78906e+09 
6.76382e+09 6.66708e+09 6.87995e+09 6.84346e+09 6.94819e+09 6.85866e+09 6.76333e+09 6.84111e+09 6.80029e+09 
6.8976e+09 6.66571e+09 6.62119e+09 6.64188e+09 6.55005e+09 6.6162e+09 7.08222e+09 7.02399e+09 6.55446e+09 
6.68185e+09 6.81669e+09 6.86401e+09 6.92539e+09 6.73124e+09 6.92416e+09 6.8358e+09 6.97198e+09 6.90396e+09 
6.60081e+09 6.69918e+09 6.77598e+09 6.74975e+09 6.85032e+09 6.62236e+09 6.77015e+09 6.66303e+09 6.67254e+09 
6.7054e+09 7.09266e+09 6.96308e+09 7.00117e+09 6.85898e+09 7.12647e+09 7.09851e+09 6.76867e+09 6.70216e+09 
6.76581e+09 6.71961e+09 6.79844e+09 6.62948e+09 6.56002e+09 6.71158e+09 6.53311e+09 6.83609e+09 7.39714e+09 
6.92486e+09 6.66148e+09 6.95928e+09 6.91313e+09 6.77786e+09 6.49493e+09 6.72315e+09 6.53061e+09 6.55947e+09 
6.62155e+09 6.58026e+09 6.84508e+09 6.80894e+09 7.13479e+09 7.13783e+09 7.02618e+09 7.09574e+09 6.72888e+09 
7.04726e+09 7.03999e+09 6.92047e+09 6.77607e+09 6.9393e+09 6.84276e+09 6.69605e+09 6.88837e+09 6.74486e+09 
6.47601e+09 6.65215e+09 6.75459e+09 6.53343e+09 6.63624e+09 6.84194e+09 6.90055e+09 6.89946e+09 6.86135e+09 
7.07387e+09 6.84375e+09 7.0796e+09 6.93481e+09 6.72341e+09 6.84655e+09 6.94027e+09 6.89124e+09 6.81895e+09 
6.76706e+09 6.60749e+09 6.87651e+09 6.91667e+09 7.0305e+09 7.05498e+09 7.12393e+09 6.70652e+09 6.59413e+09 
6.79339e+09 6.52079e+09 6.64543e+09 6.65018e+09 6.84045e+09 6.83022e+09 6.52169e+09 6.67693e+09 6.8998e+09 
6.85755e+09 6.8798e+09 6.73195e+09 6.64279e+09 6.71565e+09 6.69375e+09 6.85927e+09 6.69383e+09 6.75048e+09 
6.624e+09 6.57213e+09 6.78868e+09 6.78327e+09 6.7714e+09 6.76647e+09 6.84843e+09 6.82185e+09 6.89886e+09 
6.98245e+09 6.81063e+09 7.00539e+09 6.9277e+09 6.70415e+09 6.65889e+09 6.77094e+09 6.58171e+09 7.09229e+09 
7.07666e+09 6.7043e+09 6.75329e+09 6.72216e+09 6.53995e+09 6.74632e+09 6.97831e+09 6.76769e+09 6.74451e+09 
6.64251e+09 6.67878e+09 6.83252e+09 6.65111e+09 6.60438e+09 6.91858e+09 6.70017e+09 6.6821e+09 6.84992e+09 
6.9545e+09 7.09807e+09 6.84025e+09 7.02614e+09 7.18878e+09 7.15266e+09 6.81739e+09 7.19518e+09 6.7987e+09 
6.70302e+09 7.24778e+09 6.62037e+09 6.71925e+09 6.73907e+09 6.92014e+09 6.9863e+09 6.6386e+09 6.84304e+09 
6.6347e+09 7.00472e+09 7.16189e+09 7.21982e+09 6.69923e+09 6.97858e+09 6.97358e+09 6.69595e+09 6.77085e+09 
6.57374e+09 6.6379e+09 6.68438e+09 6.58708e+09 6.90798e+09 7.09973e+09 6.80749e+09 6.88097e+09 7.08286e+09 
7.20387e+09 6.87096e+09 7.07404e+09 7.09078e+09 7.09648e+09 7.03263e+09 6.82413e+09 6.56752e+09 6.85818e+09 
6.53156e+09 6.89279e+09 6.72378e+09 7.14754e+09 7.13383e+09 6.63828e+09 6.90381e+09 6.99566e+09 7.19397e+09 
6.82633e+09 6.92781e+09 6.88549e+09 6.85507e+09 6.69723e+09 6.67559e+09 6.68721e+09 6.71186e+09 6.82924e+09 
6.84581e+09 6.71406e+09 6.82232e+09 6.91563e+09 6.84232e+09 6.91707e+09 7.11328e+09 6.90753e+09 6.7106e+09 
7.10163e+09 6.8772e+09 6.76596e+09 6.89298e+09 6.85829e+09 6.61956e+09 6.76114e+09 6.63219e+09 6.53261e+09 
6.745e+09 7.02516e+09 6.69783e+09 6.66633e+09 6.83706e+09 6.65929e+09 6.71003e+09 6.89782e+09 6.99013e+09 
6.48579e+09 6.72006e+09 6.63994e+09 6.75706e+09 6.66976e+09 6.93691e+09 6.84143e+09 6.73047e+09 6.86461e+09 
6.85145e+09 7.29208e+09 7.16381e+09 6.96616e+09 6.68711e+09 7.02241e+09 6.82467e+09 6.79486e+09 6.61463e+09 
6.59134e+09 6.72303e+09 6.59393e+09 7.13042e+09 6.44652e+09 6.55911e+09 6.965e+09 6.79328e+09 6.88103e+09 
6.78802e+09 6.83671e+09 6.94428e+09 6.78351e+09 6.58556e+09 7.1575e+09 6.63721e+09 6.6162e+09 6.94076e+09 
6.65329e+09 6.57435e+09 6.67111e+09 6.81984e+09 6.97048e+09 6.80137e+09 7.08515e+09 7.02244e+09 6.96516e+09 
6.98102e+09 7.27238e+09 6.66087e+09 6.62484e+09 6.748e+09 6.60901e+09 6.59385e+09 6.57288e+09 6.64587e+09 
6.75454e+09 6.66847e+09 7.09176e+09 6.96781e+09 6.99562e+09 6.88759e+09 6.62482e+09 6.75194e+09 6.46917e+09 
6.73246e+09 6.7059e+09 6.59588e+09 6.95448e+09 6.75876e+09 6.70173e+09 7.0179e+09 6.70064e+09 6.89069e+09 
6.95597e+09 7.04995e+09 7.00014e+09 6.93011e+09 6.7767e+09 6.76695e+09 6.78057e+09 6.70869e+09 6.551e+09 
6.5457e+09 6.71538e+09 6.48207e+09 6.74646e+09 6.92625e+09 7.01199e+09 6.75668e+09 6.69598e+09 6.9435e+09 
6.77846e+09 7.12171e+09 7.07714e+09 6.71498e+09 6.62942e+09 6.95191e+09 6.76606e+09 6.87533e+09 6.76548e+09 
6.71618e+09 6.7962e+09 6.90693e+09 6.77747e+09 6.84899e+09 6.79753e+09 6.82555e+09 6.72871e+09 7.44001e+09 
6.99669e+09 6.81307e+09 6.89269e+09 6.74883e+09 6.60829e+09 6.64085e+09 6.55697e+09 7.14849e+09 6.59345e+09 
6.8768e+09 6.95099e+09 6.69582e+09 6.80575e+09 6.91626e+09 6.97982e+09 7.07224e+09 6.83288e+09 7.16711e+09 
6.88028e+09 6.64223e+09 6.81347e+09 6.62135e+09 6.76773e+09 6.68981e+09 6.67227e+09 6.87232e+09 6.61367e+09 
6.92545e+09 6.7089e+09 6.78888e+09 6.60028e+09 6.75646e+09 6.96e+09 6.98205e+09 6.96017e+09 6.85411e+09 
6.89115e+09 6.78273e+09 6.87226e+09 6.81989e+09 6.68274e+09 6.83277e+09 7.26888e+09 6.54994e+09 6.65645e+09 
6.82451e+09 6.7614e+09 6.65042e+09 6.62851e+09 6.60386e+09 6.69493e+09 6.62286e+09 6.64629e+09 6.92258e+09 
6.98505e+09 6.78636e+09 6.87333e+09 7.00256e+09 6.59332e+09 6.77017e+09 6.7098e+09 6.98159e+09 6.80601e+09 
6.8141e+09 6.92942e+09 6.91165e+09 6.70422e+09 6.83601e+09 6.57243e+09 6.62426e+09 6.75083e+09 6.87579e+09 
6.46954e+09 6.61939e+09 6.66227e+09 6.86503e+09 6.71363e+09 7.00798e+09 7.09596e+09 7.27833e+09 7.04621e+09 
7.11743e+09 6.74e+09 6.56606e+09 6.83887e+09 6.70679e+09 6.52569e+09 6.83129e+09 6.88724e+09 6.91174e+09 
6.69197e+09 6.65323e+09 6.80045e+09 6.80835e+09 6.76021e+09 6.73531e+09 6.93677e+09 6.79137e+09 6.74514e+09 
6.67576e+09 6.97911e+09 6.85132e+09 6.81752e+09 6.83732e+09 6.58195e+09 6.62973e+09 6.48728e+09 6.79138e+09 
6.82221e+09 6.75906e+09 6.79245e+09 6.89369e+09 6.711e+09 7.03544e+09 7.04367e+09 6.73092e+09 6.91867e+09 
6.77568e+09 6.78855e+09 7.13219e+09 6.5573e+09 6.89433e+09 6.90956e+09 6.73434e+09 6.84093e+09 6.98765e+09 
6.6304e+09 7.40404e+09 6.96377e+09 6.91054e+09 6.83457e+09 6.6839e+09 6.53727e+09 6.98255e+09 6.89667e+09 
7.24744e+09 6.90674e+09 6.75351e+09 6.89339e+09 6.74611e+09 6.68719e+09 6.75445e+09 6.96918e+09 6.66422e+09 
6.62667e+09 6.67717e+09 6.85396e+09 6.70577e+09 6.78791e+09 6.9196e+09 6.87512e+09 6.78882e+09 6.84381e+09 
7.19099e+09 6.88741e+09 6.87126e+09 6.87786e+09 6.70168e+09 6.72905e+09 6.94684e+09 6.67558e+09 6.95099e+09 
7.08895e+09 6.94474e+09 6.58163e+09 6.61625e+09 6.59955e+09 6.76099e+09 6.93331e+09 6.67955e+09 6.91736e+09 
6.69231e+09 6.73557e+09 6.94761e+09 7.13539e+09 6.73465e+09 6.79485e+09 6.75515e+09 6.70671e+09 6.74354e+09 
6.69782e+09 6.7371e+09 6.76485e+09 6.79096e+09 6.96083e+09 7.16442e+09 6.99577e+09 6.70646e+09 6.79684e+09 
6.81726e+09 6.87809e+09 6.78426e+09 6.92621e+09 6.63782e+09 6.79801e+09 6.80742e+09 6.77733e+09 6.58922e+09 
6.74775e+09 6.70124e+09 6.84256e+09 6.59988e+09 6.78947e+09 6.5925e+09 6.68489e+09 6.92525e+09 7.03929e+09 
6.74071e+09 6.81416e+09 6.68662e+09 6.6583e+09 6.98191e+09 6.81788e+09 6.92894e+09 7.15297e+09 6.74976e+09 
7.07466e+09 6.95392e+09 6.65855e+09 6.84504e+09 6.67531e+09 6.85974e+09 6.80131e+09 6.94099e+09 6.70374e+09 
6.66741e+09 7.23009e+09 6.98796e+09 6.59912e+09 6.91281e+09 6.84802e+09 7.00183e+09 7.10617e+09 6.57077e+09 
6.80286e+09 6.60345e+09 6.59112e+09 6.94498e+09 6.86725e+09 7.2425e+09 6.60893e+09 6.87887e+09 6.76782e+09 
6.8766e+09 7.14515e+09 6.79394e+09 6.52499e+09 7.09334e+09 7.4188e+09 6.85677e+09 6.95973e+09 6.65723e+09 
7.01316e+09 6.73834e+09 6.87811e+09 7.50642e+09 7.10299e+09 6.90069e+09 6.55319e+09 6.83137e+09 6.57522e+09 
6.65632e+09 6.83781e+09 6.6949e+09 6.68906e+09 7.54359e+09 6.70356e+09 6.73167e+09 6.74185e+09 7.06657e+09 
6.57227e+09 6.72194e+09 7.03621e+09 6.74777e+09 6.6997e+09 6.62112e+09 6.59116e+09 6.64097e+09 6.74255e+09 
6.74484e+09 7.12819e+09 6.76103e+09 6.68034e+09 6.80467e+09 6.73721e+09 7.02782e+09 6.759e+09 6.87257e+09 
6.90026e+09 6.76306e+09 6.72511e+09 6.63272e+09 6.65242e+09 6.71918e+09 6.86666e+09 7.0092e+09 7.07113e+09 
6.6077e+09 6.59851e+09 6.6073e+09 6.65378e+09 6.73374e+09 6.6611e+09 6.90234e+09 6.70341e+09 7.04605e+09 
6.99522e+09 7.12807e+09 6.90848e+09 6.77188e+09 6.95092e+09 7.04705e+09 7.27975e+09 7.07542e+09 6.64001e+09 
6.78984e+09 7.02081e+09 6.90621e+09 6.68704e+09 6.90014e+09 6.63685e+09 6.87706e+09 6.94411e+09 7.05521e+09 
6.84009e+09 6.84357e+09 6.78717e+09 6.93147e+09 7.19709e+09 6.67363e+09 6.65891e+09 6.49378e+09 6.66804e+09 
6.6018e+09 6.89448e+09 6.83426e+09 6.87635e+09 7.11316e+09 6.70228e+09 7.12924e+09 6.9726e+09 6.94801e+09 
6.90039e+09 6.6386e+09 6.99725e+09 6.90758e+09 6.75127e+09 6.83275e+09 7.12747e+09 6.80633e+09 6.62587e+09 
6.89085e+09 6.97926e+09 6.75694e+09 6.80169e+09 6.85489e+09 6.86271e+09 7.05998e+09 7.17551e+09 7.04664e+09 