# vtk DataFile Version 3.0
vtk output
ASCII
DATASET RECTILINEAR_GRID
FIELD FieldData 4
MeshName 1 1 string
mesh

CYCLE 1 1 int
10 
TIME 1 1 double
10 
avtOriginalBounds 1 6 double
0 1.95312 1.77002 1.95312 0 1.95312 
DIMENSIONS 33 4 33
X_COORDINATES 33 double
0 0.0610352 0.12207 0.183105 0.244141 0.305176 0.366211 0.427246 0.488281 
0.549316 0.610352 0.671387 0.732422 0.793457 0.854492 0.915527 0.976562 1.0376 
1.09863 1.15967 1.2207 1.28174 1.34277 1.40381 1.46484 1.52588 1.58691 
1.64795 1.70898 1.77002 1.83105 1.89209 1.95312 
Y_COORDINATES 4 double
1.77002 1.83105 1.89209 1.95312 
Z_COORDINATES 33 double
0 0.0610352 0.12207 0.183105 0.244141 0.305176 0.366211 0.427246 0.488281 
0.549316 0.610352 0.671387 0.732422 0.793457 0.854492 0.915527 0.976562 1.0376 
1.09863 1.15967 1.2207 1.28174 1.34277 1.40381 1.46484 1.52588 1.58691 
1.64795 1.70898 1.77002 1.83105 1.89209 1.95312 
CELL_DATA 3072
SCALARS simdata double
LOOKUP_TABLE default
7.15477e+09 7.05143e+09 6.86898e+09 7.84619e+09 6.96904e+09 6.8938e+09 6.84734e+09 6.78353e+09 6.80707e+09 
6.98789e+09 6.7064e+09 6.80491e+09 7.1049e+09 6.93027e+09 6.61503e+09 6.58062e+09 6.75842e+09 6.64851e+09 
7.03897e+09 7.0109e+09 6.94899e+09 7.35235e+09 7.11513e+09 6.94063e+09 6.65573e+09 7.07365e+09 7.08394e+09 
7.3569e+09 6.74399e+09 6.82455e+09 6.91538e+09 7.12019e+09 6.99193e+09 7.03184e+09 7.03931e+09 7.35639e+09 
7.02171e+09 6.99163e+09 6.64341e+09 6.72206e+09 6.65212e+09 7.34469e+09 7.03865e+09 6.94832e+09 6.69782e+09 
6.89007e+09 6.95625e+09 6.83577e+09 6.61689e+09 6.81831e+09 6.84399e+09 6.77459e+09 6.78307e+09 6.86945e+09 
7.30119e+09 6.95164e+09 6.71214e+09 6.96538e+09 7.40745e+09 7.3791e+09 6.8809e+09 6.89968e+09 7.02902e+09 
7.33588e+09 7.2614e+09 6.84026e+09 7.25421e+09 7.19597e+09 6.93075e+09 6.81234e+09 7.08792e+09 6.9014e+09 
7.34348e+09 6.90411e+09 6.87793e+09 7.06853e+09 7.03577e+09 7.18717e+09 7.0529e+09 6.77382e+09 6.84146e+09 
7.06802e+09 7.20874e+09 6.81193e+09 7.09632e+09 6.66143e+09 7.30545e+09 7.06523e+09 6.80195e+09 7.05557e+09 
7.11288e+09 6.94548e+09 6.70843e+09 6.92403e+09 6.84201e+09 6.76297e+09 7.26282e+09 6.81882e+09 7.43578e+09 
7.01981e+09 6.61741e+09 7.26451e+09 6.96219e+09 6.84931e+09 6.87413e+09 6.91824e+09 6.95821e+09 6.89188e+09 
6.8557e+09 6.91648e+09 6.74789e+09 6.85861e+09 6.79047e+09 6.91336e+09 7.00181e+09 7.5644e+09 6.97678e+09 
7.38156e+09 7.14632e+09 6.59849e+09 6.74206e+09 6.87033e+09 6.98488e+09 6.7008e+09 6.67692e+09 7.24225e+09 
7.03927e+09 6.88848e+09 7.2442e+09 7.18478e+09 6.90037e+09 7.14842e+09 7.23661e+09 7.0858e+09 6.76634e+09 
6.80635e+09 6.78365e+09 7.61512e+09 6.81698e+09 7.0278e+09 7.02991e+09 6.81065e+09 6.79694e+09 7.0283e+09 
7.10725e+09 7.37126e+09 6.80758e+09 6.86031e+09 7.01248e+09 7.22571e+09 7.35137e+09 6.8787e+09 6.82363e+09 
7.16948e+09 7.38011e+09 7.20279e+09 6.8144e+09 6.90663e+09 6.96451e+09 7.13233e+09 7.38737e+09 7.16882e+09 
6.91108e+09 7.0913e+09 7.00808e+09 6.95103e+09 6.63568e+09 6.79455e+09 6.74227e+09 6.91583e+09 7.10275e+09 
7.18586e+09 6.78966e+09 6.86023e+09 7.34302e+09 6.89302e+09 6.97728e+09 7.03712e+09 7.15775e+09 6.75742e+09 
6.87508e+09 6.96767e+09 7.38224e+09 7.04222e+09 7.00473e+09 7.39362e+09 7.06609e+09 7.16786e+09 6.71419e+09 
6.78746e+09 6.86436e+09 6.95209e+09 6.87003e+09 6.71804e+09 6.80926e+09 6.76403e+09 6.94814e+09 6.91515e+09 
6.8397e+09 6.82942e+09 7.09791e+09 6.84883e+09 6.952e+09 6.81305e+09 6.9099e+09 6.90402e+09 7.09632e+09 
6.70721e+09 6.81975e+09 6.92669e+09 6.82913e+09 7.57991e+09 6.91373e+09 7.45145e+09 6.95935e+09 6.79947e+09 
6.92915e+09 6.79682e+09 7.0828e+09 6.87257e+09 6.84637e+09 6.90703e+09 6.85232e+09 6.81943e+09 6.7972e+09 
6.55419e+09 6.88807e+09 6.88161e+09 6.87463e+09 6.76758e+09 6.88131e+09 6.73049e+09 7.27656e+09 7.64175e+09 
7.46187e+09 7.02533e+09 6.71816e+09 6.81784e+09 6.82616e+09 7.18688e+09 7.01529e+09 6.72934e+09 6.88072e+09 
7.23454e+09 6.95777e+09 7.2765e+09 7.31474e+09 7.22864e+09 6.8834e+09 7.01817e+09 7.16004e+09 7.54904e+09 
6.88928e+09 6.83743e+09 7.0013e+09 6.89595e+09 6.81153e+09 6.77496e+09 7.38686e+09 7.30707e+09 7.03653e+09 
6.97065e+09 6.65964e+09 6.76568e+09 6.92051e+09 6.85242e+09 7.15894e+09 7.34884e+09 7.08768e+09 6.92715e+09 
6.88004e+09 6.99801e+09 7.03843e+09 7.02635e+09 7.07072e+09 7.08378e+09 7.15344e+09 7.13712e+09 7.04461e+09 
6.75463e+09 7.29948e+09 7.06646e+09 7.13143e+09 6.95087e+09 6.7533e+09 6.77565e+09 6.75165e+09 6.75764e+09 
6.69541e+09 6.76849e+09 6.87313e+09 7.03537e+09 7.1989e+09 7.1769e+09 6.9011e+09 7.13057e+09 7.2148e+09 
6.84501e+09 6.89939e+09 6.93306e+09 6.97282e+09 6.85179e+09 6.79493e+09 6.9143e+09 6.73549e+09 6.82447e+09 
6.94362e+09 7.18769e+09 7.67626e+09 7.09894e+09 7.07584e+09 6.85339e+09 7.12131e+09 6.89296e+09 6.92478e+09 
7.13311e+09 6.94316e+09 7.03202e+09 7.17115e+09 6.90128e+09 6.87545e+09 6.66499e+09 6.79317e+09 7.23198e+09 
6.7745e+09 6.74527e+09 7.36882e+09 7.01346e+09 7.05178e+09 6.89818e+09 6.85571e+09 7.28585e+09 6.69769e+09 
6.68462e+09 6.91269e+09 6.74453e+09 6.81215e+09 6.85889e+09 6.74268e+09 7.26273e+09 7.07195e+09 7.48073e+09 
7.82186e+09 7.50852e+09 7.4628e+09 7.23636e+09 6.94048e+09 6.92191e+09 7.0087e+09 6.92618e+09 6.66803e+09 
6.92663e+09 6.86905e+09 6.6564e+09 6.89192e+09 6.87987e+09 6.74443e+09 7.17281e+09 6.93545e+09 6.91966e+09 
6.97286e+09 7.01092e+09 6.93777e+09 6.93164e+09 6.89037e+09 6.9332e+09 7.03163e+09 6.85277e+09 6.82936e+09 
6.83362e+09 6.81847e+09 6.93436e+09 7.12695e+09 7.0356e+09 7.1196e+09 7.12564e+09 7.58983e+09 7.49441e+09 
6.92449e+09 7.16683e+09 6.88684e+09 6.89527e+09 6.59815e+09 6.93011e+09 6.92488e+09 6.9044e+09 6.89113e+09 
7.39285e+09 7.24207e+09 7.50709e+09 7.04114e+09 7.15671e+09 7.20867e+09 7.51783e+09 7.09586e+09 7.15628e+09 
7.29058e+09 6.70445e+09 7.00008e+09 7.34108e+09 6.9359e+09 6.76173e+09 7.10829e+09 7.00661e+09 7.38508e+09 
7.06058e+09 6.91617e+09 6.93801e+09 6.92259e+09 7.0906e+09 6.96776e+09 7.05543e+09 6.90953e+09 6.86646e+09 
7.06704e+09 6.89348e+09 6.79444e+09 7.1246e+09 6.84986e+09 7.15664e+09 6.81957e+09 6.8048e+09 7.19038e+09 
7.27942e+09 7.04363e+09 6.7801e+09 6.8664e+09 6.76911e+09 6.77501e+09 6.75889e+09 6.87675e+09 7.00433e+09 
7.10442e+09 6.88619e+09 6.85808e+09 7.22374e+09 7.57761e+09 7.31621e+09 7.70644e+09 7.17825e+09 7.31464e+09 
7.11832e+09 6.8933e+09 7.27049e+09 6.73105e+09 6.98364e+09 6.8746e+09 6.7206e+09 6.92361e+09 6.87855e+09 
6.99658e+09 7.14591e+09 6.72462e+09 6.80415e+09 7.01349e+09 7.25452e+09 6.99012e+09 6.91613e+09 6.77379e+09 
7.06758e+09 6.79961e+09 7.13669e+09 6.94887e+09 6.83802e+09 6.99702e+09 6.97757e+09 7.18951e+09 7.11644e+09 
7.17597e+09 7.3301e+09 7.24075e+09 7.10612e+09 6.97067e+09 6.78196e+09 6.91272e+09 7.00551e+09 7.31684e+09 
7.30152e+09 6.63913e+09 6.80014e+09 7.10425e+09 6.93812e+09 7.3779e+09 6.80829e+09 7.30164e+09 7.24195e+09 
7.10977e+09 7.02302e+09 6.77614e+09 7.20719e+09 7.18998e+09 7.2296e+09 7.59138e+09 6.95014e+09 6.69693e+09 
7.08874e+09 6.99465e+09 7.17702e+09 7.09921e+09 7.55438e+09 7.65725e+09 7.12502e+09 6.9723e+09 7.03966e+09 
7.29393e+09 6.90007e+09 6.96802e+09 7.11507e+09 7.0344e+09 6.87754e+09 6.93789e+09 7.08258e+09 6.8018e+09 
7.02909e+09 6.97689e+09 6.9024e+09 6.79285e+09 6.8635e+09 6.99176e+09 7.13069e+09 6.91022e+09 6.78712e+09 
6.89572e+09 6.81147e+09 7.02141e+09 6.89144e+09 7.07575e+09 6.96477e+09 7.17292e+09 7.64169e+09 6.95812e+09 
7.51964e+09 7.22938e+09 6.88339e+09 7.26693e+09 6.84597e+09 6.94749e+09 6.93495e+09 6.95614e+09 7.13754e+09 
7.22351e+09 6.71009e+09 7.14548e+09 6.95288e+09 6.78943e+09 7.27415e+09 7.13109e+09 6.94111e+09 6.81651e+09 
6.77417e+09 7.25144e+09 7.06739e+09 6.858e+09 6.69567e+09 6.74537e+09 7.4837e+09 6.85683e+09 6.75377e+09 
6.59589e+09 6.91788e+09 6.86353e+09 7.05716e+09 7.16418e+09 6.97191e+09 7.49568e+09 7.28943e+09 6.83544e+09 
6.98147e+09 6.77154e+09 7.09824e+09 7.22159e+09 7.33485e+09 7.01252e+09 7.04407e+09 7.05737e+09 6.92403e+09 
7.28704e+09 7.43996e+09 7.29281e+09 6.85723e+09 6.75157e+09 7.04383e+09 7.1756e+09 6.75035e+09 7.01357e+09 
7.0986e+09 7.06767e+09 7.1531e+09 7.21257e+09 6.71844e+09 6.95272e+09 6.89283e+09 7.19647e+09 6.93323e+09 
6.97069e+09 6.97678e+09 7.11729e+09 7.02765e+09 7.08654e+09 6.9424e+09 7.00901e+09 6.80353e+09 6.82907e+09 
7.12996e+09 6.9718e+09 7.17456e+09 6.86842e+09 7.16637e+09 7.28884e+09 7.15259e+09 7.50427e+09 6.83292e+09 
6.97786e+09 6.86671e+09 6.77563e+09 6.90431e+09 6.93157e+09 7.24131e+09 6.92005e+09 6.71937e+09 7.10248e+09 
6.6975e+09 6.80707e+09 6.74285e+09 7.14308e+09 7.24359e+09 6.60921e+09 7.05196e+09 7.58301e+09 7.28058e+09 
7.13117e+09 6.89694e+09 7.26616e+09 6.91448e+09 6.86076e+09 7.21043e+09 7.46319e+09 6.88949e+09 7.01636e+09 
7.36026e+09 7.04898e+09 7.50082e+09 6.96527e+09 6.81668e+09 7.18632e+09 6.84003e+09 6.80233e+09 7.16503e+09 
7.23188e+09 6.92014e+09 6.8604e+09 7.06182e+09 6.66497e+09 6.91065e+09 6.66709e+09 6.79448e+09 6.81313e+09 
6.88661e+09 6.93875e+09 7.28362e+09 7.51687e+09 7.06053e+09 7.18348e+09 7.42965e+09 7.25251e+09 7.11605e+09 
7.13712e+09 7.34697e+09 6.83799e+09 7.31282e+09 7.17022e+09 6.82834e+09 7.13169e+09 7.032e+09 7.05845e+09 
6.89719e+09 7.52336e+09 7.29473e+09 7.18846e+09 7.48146e+09 7.17199e+09 6.91487e+09 6.95354e+09 6.99757e+09 
6.94001e+09 6.96837e+09 7.53372e+09 7.36611e+09 6.91174e+09 6.81262e+09 7.10167e+09 6.92323e+09 6.97774e+09 
7.28695e+09 7.00556e+09 6.96911e+09 7.07772e+09 6.96704e+09 7.05925e+09 6.81772e+09 6.99111e+09 6.84104e+09 
6.90846e+09 6.72728e+09 7.46082e+09 7.1255e+09 7.0284e+09 6.80668e+09 6.87662e+09 6.86062e+09 7.33971e+09 
7.47798e+09 6.84414e+09 6.96572e+09 7.02983e+09 6.71157e+09 7.29312e+09 6.72651e+09 6.81132e+09 6.79861e+09 
6.98404e+09 6.76283e+09 6.66287e+09 6.73884e+09 7.39963e+09 7.24601e+09 6.91753e+09 6.9024e+09 7.26517e+09 
6.94184e+09 6.99113e+09 6.89497e+09 6.91066e+09 6.96084e+09 6.99878e+09 7.40677e+09 6.79088e+09 6.84017e+09 
6.73844e+09 7.08568e+09 6.96859e+09 6.97654e+09 7.15677e+09 6.7888e+09 6.76152e+09 6.84091e+09 6.6474e+09 
6.88168e+09 6.85605e+09 6.78275e+09 6.71335e+09 6.64919e+09 6.84982e+09 6.96032e+09 6.5778e+09 6.67327e+09 
7.18309e+09 7.29698e+09 7.21411e+09 6.93743e+09 6.98943e+09 6.78606e+09 6.82026e+09 6.7583e+09 6.90801e+09 
6.97097e+09 6.96592e+09 6.87355e+09 6.94193e+09 6.95742e+09 6.95127e+09 7.2794e+09 7.36256e+09 7.09037e+09 
6.90928e+09 7.04986e+09 6.88322e+09 6.90173e+09 6.93882e+09 6.95898e+09 6.95394e+09 6.79903e+09 6.93946e+09 
7.05288e+09 6.86455e+09 6.80383e+09 6.82355e+09 6.64731e+09 6.69194e+09 6.95398e+09 6.97005e+09 7.07711e+09 
7.30657e+09 6.9621e+09 6.73374e+09 7.03221e+09 7.08874e+09 7.13567e+09 6.79007e+09 6.64001e+09 7.05588e+09 
6.84106e+09 6.904e+09 7.05177e+09 7.10412e+09 7.00359e+09 6.79486e+09 7.00416e+09 6.87006e+09 6.90096e+09 
7.02937e+09 6.76645e+09 7.15953e+09 6.8722e+09 6.94267e+09 7.09294e+09 6.71207e+09 6.63328e+09 6.77356e+09 
6.8854e+09 7.03134e+09 7.00868e+09 7.15155e+09 6.8711e+09 6.95343e+09 7.05072e+09 7.28896e+09 7.31456e+09 
7.17283e+09 6.84938e+09 7.19946e+09 7.14256e+09 7.15153e+09 7.12342e+09 6.95752e+09 6.93629e+09 7.34698e+09 
7.35081e+09 6.81999e+09 6.8532e+09 7.00774e+09 6.89079e+09 6.85429e+09 6.83255e+09 6.78591e+09 6.79831e+09 
6.78284e+09 6.90203e+09 7.0456e+09 6.67724e+09 6.74933e+09 6.73635e+09 6.77201e+09 7.13767e+09 7.02378e+09 
6.86347e+09 6.79244e+09 7.13256e+09 6.7954e+09 6.93988e+09 6.79695e+09 6.68419e+09 6.8368e+09 6.90318e+09 
6.77779e+09 6.79752e+09 6.85544e+09 7.71735e+09 7.12618e+09 6.967e+09 6.8691e+09 6.96207e+09 6.74308e+09 
6.92473e+09 6.98198e+09 7.04375e+09 6.67412e+09 6.80342e+09 6.85477e+09 6.73813e+09 6.58092e+09 6.69669e+09 
6.89424e+09 7.07388e+09 7.02805e+09 7.20588e+09 7.05218e+09 7.18492e+09 6.87655e+09 6.92128e+09 7.01594e+09 
7.05659e+09 7.11286e+09 6.84458e+09 6.66283e+09 7.00679e+09 6.8289e+09 7.14772e+09 6.80658e+09 6.95158e+09 
6.97203e+09 6.77031e+09 6.77993e+09 6.8387e+09 7.04655e+09 6.846e+09 6.76002e+09 7.07609e+09 6.9725e+09 
6.869e+09 6.9577e+09 6.82166e+09 6.87634e+09 6.85622e+09 6.66974e+09 7.08594e+09 7.5639e+09 6.8261e+09 
6.72906e+09 6.83589e+09 6.84052e+09 7.1955e+09 6.79887e+09 7.13867e+09 7.07429e+09 6.6831e+09 6.78157e+09 
6.86976e+09 6.893e+09 7.10185e+09 7.2946e+09 6.92337e+09 6.99592e+09 6.8974e+09 6.87442e+09 6.81995e+09 
6.95963e+09 6.81456e+09 7.11625e+09 7.21744e+09 6.71585e+09 6.92583e+09 6.97189e+09 6.82297e+09 6.70878e+09 
6.84432e+09 6.5944e+09 6.62546e+09 6.69144e+09 7.12961e+09 7.0431e+09 6.72677e+09 6.97958e+09 7.00654e+09 
7.52747e+09 6.81102e+09 6.83017e+09 7.00713e+09 6.79237e+09 6.64564e+09 6.87362e+09 6.97044e+09 6.65244e+09 
7.03462e+09 7.42254e+09 7.16465e+09 6.99917e+09 6.88324e+09 6.68789e+09 7.00611e+09 7.08476e+09 7.14021e+09 
6.9077e+09 6.85776e+09 6.92707e+09 6.77614e+09 6.79772e+09 6.96218e+09 6.95159e+09 7.16799e+09 6.81541e+09 
7.0468e+09 7.25799e+09 6.90745e+09 6.78687e+09 6.66863e+09 7.04171e+09 6.83362e+09 7.03132e+09 6.78779e+09 
6.8926e+09 6.91751e+09 7.25635e+09 7.06168e+09 6.96853e+09 7.28436e+09 7.48652e+09 6.97894e+09 6.66301e+09 
6.84202e+09 7.02795e+09 7.04333e+09 7.27471e+09 7.40673e+09 6.99612e+09 6.94326e+09 6.95993e+09 7.228e+09 
6.94279e+09 7.10139e+09 6.89496e+09 7.01286e+09 7.18062e+09 6.93854e+09 7.02003e+09 6.81995e+09 6.68364e+09 
6.78515e+09 6.69629e+09 7.07672e+09 7.00019e+09 6.9925e+09 7.07276e+09 6.93499e+09 7.06243e+09 7.24487e+09 
7.62049e+09 6.99876e+09 6.83043e+09 6.84454e+09 6.90356e+09 6.98529e+09 6.75526e+09 6.79574e+09 7.2723e+09 
7.42607e+09 7.14148e+09 6.90783e+09 7.32712e+09 6.83107e+09 7.15881e+09 6.72915e+09 7.01228e+09 6.90591e+09 
6.9259e+09 6.87323e+09 7.16827e+09 7.0631e+09 7.19553e+09 7.15518e+09 7.41375e+09 7.00343e+09 7.00658e+09 
6.93886e+09 7.00634e+09 6.74651e+09 7.15225e+09 6.88794e+09 7.17485e+09 7.4516e+09 7.20484e+09 7.29047e+09 
7.24947e+09 6.65212e+09 6.89309e+09 6.82914e+09 7.02198e+09 7.04742e+09 7.64155e+09 7.72153e+09 7.0376e+09 
6.83601e+09 6.73336e+09 7.04735e+09 7.38588e+09 6.83557e+09 7.34332e+09 6.85972e+09 6.97636e+09 6.64725e+09 
6.70274e+09 6.61147e+09 7.09314e+09 6.85719e+09 7.23019e+09 6.94121e+09 7.00511e+09 6.90229e+09 7.08162e+09 
7.09646e+09 6.96883e+09 7.16143e+09 7.43208e+09 7.31805e+09 6.81565e+09 6.93111e+09 6.97257e+09 7.08138e+09 
6.89578e+09 7.18831e+09 6.97919e+09 7.26527e+09 7.03847e+09 6.76982e+09 7.12212e+09 6.82433e+09 6.99851e+09 
7.26422e+09 7.1601e+09 6.72202e+09 6.80296e+09 6.93152e+09 6.73747e+09 6.82713e+09 6.77379e+09 6.95363e+09 
7.16064e+09 7.00935e+09 6.92292e+09 7.05917e+09 6.85376e+09 7.60467e+09 6.96047e+09 7.24114e+09 7.32657e+09 
7.00679e+09 6.93917e+09 6.81967e+09 6.89911e+09 6.90952e+09 7.03499e+09 7.15391e+09 7.28765e+09 7.51953e+09 
6.98868e+09 7.01943e+09 7.23307e+09 7.15517e+09 6.86511e+09 7.02369e+09 6.81975e+09 6.89868e+09 7.38313e+09 
6.8839e+09 6.98406e+09 7.24277e+09 7.24623e+09 6.96401e+09 7.1436e+09 7.05716e+09 6.91146e+09 6.79697e+09 
6.85894e+09 7.01544e+09 7.47626e+09 7.48623e+09 6.85812e+09 6.78827e+09 7.31293e+09 6.7897e+09 6.97459e+09 
6.90779e+09 7.01788e+09 7.01187e+09 7.16755e+09 6.89256e+09 6.93672e+09 7.12527e+09 6.76319e+09 6.78901e+09 
6.97359e+09 7.07417e+09 6.87099e+09 6.85548e+09 6.75704e+09 6.70211e+09 7.00251e+09 6.993e+09 6.76178e+09 
6.85574e+09 6.89163e+09 7.09317e+09 6.87011e+09 6.95978e+09 7.01687e+09 6.97502e+09 6.83638e+09 7.17731e+09 
7.22185e+09 7.15763e+09 6.70224e+09 6.75361e+09 6.75034e+09 6.88758e+09 6.70688e+09 6.90437e+09 6.91015e+09 
6.77227e+09 7.09734e+09 6.69697e+09 7.00519e+09 6.58891e+09 6.87155e+09 6.81299e+09 6.7107e+09 6.70984e+09 
7.01144e+09 7.06531e+09 6.86432e+09 6.9899e+09 6.92267e+09 6.92464e+09 6.86997e+09 6.98482e+09 6.85268e+09 
6.9113e+09 6.66526e+09 7.32152e+09 7.03924e+09 7.12385e+09 7.11061e+09 6.85615e+09 6.76719e+09 6.88809e+09 
6.8709e+09 6.85716e+09 6.82302e+09 6.78192e+09 7.32742e+09 6.98685e+09 6.81126e+09 6.63988e+09 6.91711e+09 
6.79572e+09 6.74309e+09 6.84033e+09 6.70857e+09 6.92296e+09 6.89995e+09 6.97582e+09 6.836e+09 7.0866e+09 
7.06135e+09 7.05554e+09 6.98402e+09 6.92294e+09 6.72171e+09 6.88708e+09 6.79977e+09 6.94459e+09 6.96356e+09 
7.06484e+09 6.91471e+09 6.92712e+09 7.2032e+09 7.02287e+09 7.22255e+09 7.04487e+09 7.45223e+09 7.14776e+09 
6.89832e+09 7.07094e+09 7.00103e+09 7.01728e+09 6.74992e+09 6.87592e+09 7.04545e+09 7.20333e+09 7.1711e+09 
7.01779e+09 7.03754e+09 6.66174e+09 6.95095e+09 6.85063e+09 6.93005e+09 6.9513e+09 6.60851e+09 6.91407e+09 
6.71827e+09 6.68508e+09 6.85916e+09 6.86089e+09 7.0896e+09 6.94985e+09 6.90196e+09 6.88814e+09 6.91059e+09 
7.13435e+09 6.96773e+09 6.92427e+09 6.91216e+09 7.03211e+09 7.01683e+09 7.12193e+09 6.86345e+09 7.00074e+09 
6.99804e+09 6.6487e+09 6.77684e+09 6.72097e+09 6.84988e+09 6.80478e+09 7.1053e+09 6.99868e+09 6.76024e+09 
6.94263e+09 6.87263e+09 6.67866e+09 7.07464e+09 7.2085e+09 6.98313e+09 7.03489e+09 6.88321e+09 6.95525e+09 
7.00376e+09 7.16747e+09 7.10548e+09 6.89482e+09 6.97852e+09 7.04689e+09 6.86811e+09 7.25286e+09 6.87904e+09 
6.74127e+09 6.95737e+09 6.91571e+09 6.89513e+09 7.1201e+09 6.95608e+09 6.84118e+09 6.77093e+09 6.7128e+09 
6.68443e+09 6.92626e+09 6.77531e+09 7.00784e+09 6.75957e+09 6.86211e+09 6.63484e+09 6.81302e+09 7.18198e+09 
7.06324e+09 6.7234e+09 6.8322e+09 6.81166e+09 6.95935e+09 7.04899e+09 7.07133e+09 6.92668e+09 7.11585e+09 
7.25286e+09 6.99236e+09 7.16624e+09 7.09986e+09 7.07007e+09 6.80537e+09 6.7154e+09 6.61277e+09 6.86157e+09 
6.91442e+09 7.18285e+09 7.10484e+09 7.19918e+09 7.26869e+09 6.96511e+09 6.73427e+09 6.90534e+09 7.18051e+09 
6.96363e+09 6.65243e+09 6.92636e+09 7.00257e+09 6.83356e+09 6.90476e+09 6.68767e+09 6.68716e+09 6.88183e+09 
6.92256e+09 7.20774e+09 6.92672e+09 7.2763e+09 7.01919e+09 6.88256e+09 7.49771e+09 7.24944e+09 7.24007e+09 
6.68294e+09 6.76356e+09 6.79284e+09 6.7604e+09 7.11621e+09 7.34319e+09 6.75363e+09 6.76535e+09 6.87108e+09 
7.10196e+09 7.11506e+09 7.11206e+09 7.12853e+09 6.99521e+09 6.83753e+09 6.8193e+09 6.88089e+09 6.81749e+09 
6.98698e+09 7.26221e+09 6.70751e+09 6.87768e+09 6.92863e+09 6.9271e+09 6.9647e+09 6.93426e+09 7.70607e+09 
7.66847e+09 7.40076e+09 7.1628e+09 7.33341e+09 6.778e+09 6.91252e+09 6.92577e+09 6.79925e+09 6.94467e+09 
6.76031e+09 6.83411e+09 6.71878e+09 6.94391e+09 7.16403e+09 6.93351e+09 6.95448e+09 6.96059e+09 7.51952e+09 
6.83226e+09 6.94889e+09 6.80986e+09 6.8166e+09 6.92352e+09 7.33346e+09 7.39799e+09 7.10986e+09 6.96902e+09 
6.91481e+09 6.79645e+09 6.9945e+09 6.83461e+09 7.16826e+09 7.35858e+09 6.9308e+09 6.78295e+09 6.97369e+09 
7.18378e+09 7.11846e+09 6.96876e+09 7.11261e+09 7.23307e+09 7.00737e+09 6.93544e+09 6.79738e+09 7.02617e+09 
7.09465e+09 6.80231e+09 6.92451e+09 7.27153e+09 6.95603e+09 6.90253e+09 6.88139e+09 6.9197e+09 6.73357e+09 
6.7371e+09 6.96655e+09 6.93698e+09 6.97e+09 6.65387e+09 6.81121e+09 7.01163e+09 6.68583e+09 6.96307e+09 
7.28329e+09 6.95635e+09 7.14805e+09 6.81041e+09 6.82022e+09 6.99265e+09 6.77383e+09 6.87702e+09 6.83289e+09 
7.09483e+09 7.06552e+09 6.97353e+09 6.74789e+09 6.80792e+09 7.09392e+09 6.97199e+09 6.96324e+09 7.59028e+09 
7.01797e+09 7.18252e+09 6.70066e+09 6.80134e+09 7.06731e+09 6.82995e+09 7.31482e+09 6.84999e+09 6.89339e+09 
6.75412e+09 6.96821e+09 7.04426e+09 7.0339e+09 6.95944e+09 7.73384e+09 7.35117e+09 7.32499e+09 7.37475e+09 
7.44764e+09 6.72469e+09 6.91404e+09 6.98003e+09 7.09216e+09 6.96609e+09 6.77581e+09 6.70784e+09 7.03997e+09 
6.81424e+09 7.21446e+09 6.83208e+09 6.96941e+09 7.01251e+09 7.00176e+09 6.97659e+09 7.37087e+09 6.887e+09 
6.92006e+09 7.02715e+09 7.18e+09 6.89007e+09 7.04719e+09 6.79325e+09 6.92742e+09 6.97807e+09 7.14958e+09 
6.77811e+09 7.63414e+09 7.17571e+09 7.23729e+09 7.29144e+09 7.34197e+09 7.04973e+09 6.90104e+09 7.11897e+09 
7.75065e+09 7.47489e+09 6.74659e+09 6.89017e+09 7.21369e+09 7.01166e+09 6.73051e+09 7.04513e+09 7.12901e+09 
6.73348e+09 6.69492e+09 6.93221e+09 6.76074e+09 6.84318e+09 7.18447e+09 6.85973e+09 6.72902e+09 6.96286e+09 
6.49457e+09 6.72271e+09 6.91258e+09 6.7855e+09 7.2041e+09 7.04296e+09 7.06007e+09 6.94456e+09 7.30422e+09 
7.49416e+09 7.32495e+09 7.17316e+09 7.01146e+09 6.86247e+09 7.46982e+09 7.40441e+09 7.03914e+09 7.0847e+09 
7.10053e+09 7.18561e+09 7.27715e+09 7.02977e+09 7.04653e+09 6.80276e+09 6.81656e+09 6.83493e+09 6.936e+09 
7.17047e+09 6.90113e+09 7.28365e+09 6.95104e+09 6.7678e+09 6.96571e+09 7.13627e+09 7.36701e+09 7.03097e+09 
6.90124e+09 6.79102e+09 6.96424e+09 7.0936e+09 7.04347e+09 7.30272e+09 7.30398e+09 7.29533e+09 6.91767e+09 
7.20407e+09 6.91408e+09 7.24573e+09 6.99378e+09 6.60817e+09 6.99827e+09 7.08975e+09 7.49451e+09 7.15741e+09 
7.04962e+09 7.13225e+09 7.1831e+09 6.78187e+09 7.00531e+09 6.84716e+09 6.83084e+09 7.15919e+09 7.09142e+09 
7.14534e+09 6.78426e+09 7.3316e+09 6.84091e+09 6.9731e+09 7.08097e+09 7.0087e+09 7.02096e+09 6.9141e+09 
7.17175e+09 7.20092e+09 7.09967e+09 7.15689e+09 6.73627e+09 7.11205e+09 6.98234e+09 6.99214e+09 7.04684e+09 
7.4721e+09 7.26695e+09 7.47251e+09 7.04922e+09 7.36816e+09 7.39707e+09 6.93263e+09 6.98994e+09 7.07251e+09 
6.88483e+09 6.79939e+09 7.167e+09 6.98901e+09 6.74653e+09 6.63694e+09 6.66275e+09 6.81558e+09 6.81177e+09 
6.82871e+09 7.19299e+09 7.3815e+09 7.01258e+09 6.83896e+09 7.16176e+09 7.1315e+09 7.13208e+09 6.7774e+09 
7.07387e+09 6.89408e+09 7.1965e+09 6.85379e+09 6.93064e+09 6.94922e+09 7.01011e+09 7.20811e+09 7.06499e+09 
7.36304e+09 7.22647e+09 6.76793e+09 7.07412e+09 6.87477e+09 6.90739e+09 7.04613e+09 6.94342e+09 7.15344e+09 
7.00176e+09 7.01987e+09 6.90984e+09 6.95035e+09 6.91498e+09 7.10845e+09 7.22106e+09 7.50621e+09 7.50888e+09 
7.0505e+09 7.06142e+09 7.07292e+09 6.74978e+09 6.76693e+09 6.74317e+09 6.91212e+09 6.98422e+09 7.1293e+09 
6.75029e+09 6.79505e+09 6.93474e+09 7.05749e+09 7.22678e+09 7.52003e+09 7.13107e+09 7.04148e+09 6.87539e+09 
6.81251e+09 7.05735e+09 6.91283e+09 6.86221e+09 7.3847e+09 7.25955e+09 7.08171e+09 6.95935e+09 7.09029e+09 
6.70598e+09 7.06403e+09 7.28187e+09 7.1456e+09 6.805e+09 7.08532e+09 6.92137e+09 7.0067e+09 7.02779e+09 
6.85789e+09 7.28933e+09 6.93431e+09 6.82847e+09 6.87602e+09 7.23783e+09 6.97708e+09 7.36787e+09 7.33414e+09 
7.19565e+09 7.12364e+09 7.05896e+09 7.14453e+09 6.93306e+09 7.16489e+09 6.91382e+09 6.8542e+09 7.12946e+09 
7.32868e+09 7.15171e+09 6.90378e+09 6.95689e+09 6.91045e+09 6.79755e+09 6.68802e+09 7.2968e+09 7.04449e+09 
7.07461e+09 6.92307e+09 7.06518e+09 7.19e+09 6.90983e+09 6.94746e+09 7.195e+09 6.8273e+09 7.0024e+09 
6.95321e+09 7.20327e+09 6.84956e+09 7.04469e+09 7.13326e+09 6.99616e+09 7.39914e+09 7.30316e+09 6.75023e+09 
7.01663e+09 7.07895e+09 7.05346e+09 7.4523e+09 6.84081e+09 7.00483e+09 6.67541e+09 6.66648e+09 6.96959e+09 
6.81521e+09 6.79104e+09 6.7834e+09 7.74775e+09 7.45046e+09 7.07821e+09 7.21864e+09 7.4616e+09 7.07211e+09 
6.78343e+09 6.85811e+09 6.67822e+09 6.86034e+09 7.05909e+09 6.9801e+09 6.94329e+09 7.18464e+09 7.14504e+09 
7.18838e+09 7.14674e+09 7.04328e+09 7.04583e+09 7.02299e+09 6.85187e+09 6.76803e+09 6.90251e+09 6.80352e+09 
6.93957e+09 7.16773e+09 6.88044e+09 7.20759e+09 7.11554e+09 6.98707e+09 6.98877e+09 7.02919e+09 7.54984e+09 
6.96607e+09 6.95289e+09 7.02799e+09 7.10652e+09 6.88272e+09 7.00305e+09 6.87545e+09 6.97141e+09 6.96094e+09 
6.87678e+09 7.10822e+09 7.02041e+09 7.14445e+09 7.71904e+09 6.99481e+09 7.22026e+09 6.9384e+09 6.60597e+09 
6.83696e+09 6.86756e+09 7.0605e+09 7.10292e+09 6.87588e+09 7.09918e+09 7.07804e+09 7.33001e+09 6.94987e+09 
7.02823e+09 6.86313e+09 6.77135e+09 7.09635e+09 7.10525e+09 7.35333e+09 7.05191e+09 7.45516e+09 7.01379e+09 
6.95468e+09 6.67001e+09 6.76581e+09 7.0848e+09 6.92315e+09 7.13405e+09 7.05258e+09 7.01045e+09 7.14762e+09 
7.18122e+09 7.3817e+09 7.1885e+09 6.9725e+09 6.96904e+09 6.80264e+09 6.77453e+09 6.79668e+09 6.87113e+09 
7.04716e+09 7.08426e+09 7.20495e+09 7.29508e+09 6.99796e+09 7.05841e+09 6.84377e+09 6.76461e+09 6.76872e+09 
6.88566e+09 7.14589e+09 7.27245e+09 7.15625e+09 7.11796e+09 7.07218e+09 6.64976e+09 6.80768e+09 6.78699e+09 
6.90385e+09 6.92151e+09 7.13223e+09 7.4889e+09 7.2275e+09 7.14663e+09 6.87411e+09 6.98311e+09 7.05916e+09 
7.25804e+09 6.98359e+09 7.36474e+09 6.95047e+09 6.70101e+09 7.06605e+09 6.91414e+09 7.36774e+09 7.14742e+09 
7.59511e+09 6.99957e+09 6.81443e+09 7.04122e+09 7.43223e+09 6.98963e+09 6.93122e+09 7.09567e+09 6.8493e+09 
6.80432e+09 6.85562e+09 6.83612e+09 7.07213e+09 7.42191e+09 6.9926e+09 7.07864e+09 7.19849e+09 6.8093e+09 
6.70849e+09 7.43984e+09 6.98609e+09 6.90574e+09 6.86626e+09 6.88654e+09 7.08259e+09 6.8343e+09 6.8225e+09 
6.92085e+09 6.84923e+09 7.20497e+09 7.16012e+09 6.92793e+09 7.26023e+09 6.89752e+09 6.70961e+09 6.88214e+09 
6.88939e+09 6.98104e+09 7.40185e+09 6.99209e+09 7.31676e+09 7.22132e+09 6.98311e+09 6.90495e+09 7.14799e+09 
7.36364e+09 7.12867e+09 7.45417e+09 7.17325e+09 6.9987e+09 6.80644e+09 6.78661e+09 6.96934e+09 7.24232e+09 
6.93177e+09 6.83663e+09 6.87982e+09 6.98327e+09 7.11658e+09 7.22088e+09 6.86781e+09 7.04791e+09 7.23643e+09 
6.98271e+09 7.00164e+09 6.88513e+09 7.00209e+09 6.9393e+09 6.81579e+09 6.7655e+09 6.81663e+09 7.17061e+09 
7.04221e+09 7.25628e+09 6.80578e+09 6.71412e+09 6.84289e+09 7.06529e+09 7.14475e+09 7.13695e+09 7.25946e+09 
7.24279e+09 6.99401e+09 6.87665e+09 6.91076e+09 7.17806e+09 6.80197e+09 7.07064e+09 7.26104e+09 7.1755e+09 
7.32296e+09 7.03311e+09 6.86323e+09 7.0192e+09 7.12141e+09 6.77805e+09 6.84683e+09 6.84665e+09 7.07164e+09 
7.05771e+09 6.69494e+09 6.74034e+09 6.9434e+09 7.28115e+09 6.93805e+09 6.94507e+09 6.88689e+09 6.90446e+09 
7.25878e+09 7.04482e+09 7.06216e+09 7.19748e+09 7.10675e+09 6.89278e+09 6.91323e+09 7.09935e+09 7.3798e+09 
6.94076e+09 7.12665e+09 6.84021e+09 6.9407e+09 6.84338e+09 7.03806e+09 6.74196e+09 7.28423e+09 7.16861e+09 
7.07438e+09 6.96001e+09 6.92756e+09 7.05107e+09 6.79773e+09 6.80018e+09 6.97406e+09 6.76427e+09 7.29121e+09 
6.89292e+09 7.17978e+09 6.91616e+09 6.80851e+09 6.98779e+09 7.20251e+09 7.31874e+09 6.68515e+09 6.94708e+09 
6.96704e+09 7.10944e+09 7.37225e+09 7.04456e+09 6.91795e+09 7.07827e+09 7.27909e+09 6.93665e+09 6.9019e+09 
6.93783e+09 7.10704e+09 6.96874e+09 6.86868e+09 6.95582e+09 7.21993e+09 6.86666e+09 7.00814e+09 6.88119e+09 
7.03233e+09 7.01883e+09 7.12134e+09 6.82401e+09 6.8337e+09 6.77006e+09 6.87505e+09 7.09499e+09 6.87147e+09 
6.95197e+09 6.64377e+09 7.15135e+09 7.40178e+09 6.96876e+09 7.05084e+09 7.02663e+09 7.12759e+09 7.45244e+09 
7.35409e+09 7.0328e+09 7.02607e+09 7.41011e+09 7.14087e+09 7.02747e+09 7.12304e+09 6.98383e+09 7.05215e+09 
7.22618e+09 6.94734e+09 6.90075e+09 6.7454e+09 6.83018e+09 7.23009e+09 7.3509e+09 7.15633e+09 6.68034e+09 
6.69506e+09 6.66291e+09 6.79339e+09 6.99138e+09 7.19538e+09 7.122e+09 6.92891e+09 6.99893e+09 7.32833e+09 
7.0854e+09 7.09182e+09 7.11496e+09 6.92711e+09 7.08022e+09 7.24217e+09 7.23701e+09 7.02449e+09 6.96813e+09 
6.75481e+09 6.91082e+09 7.21148e+09 6.88258e+09 6.93832e+09 6.9271e+09 6.9465e+09 6.93943e+09 6.85808e+09 
7.12327e+09 7.1252e+09 7.29224e+09 6.89135e+09 6.92309e+09 6.87146e+09 6.82605e+09 6.95468e+09 7.53425e+09 
7.30749e+09 7.2528e+09 7.52028e+09 6.82907e+09 7.25531e+09 6.8749e+09 6.79121e+09 6.90089e+09 7.05284e+09 
6.78025e+09 7.05912e+09 7.06579e+09 7.31968e+09 6.97125e+09 6.92727e+09 6.90833e+09 7.32196e+09 7.04656e+09 
7.29686e+09 6.9684e+09 6.75711e+09 6.80332e+09 6.89026e+09 6.99271e+09 7.03192e+09 7.27125e+09 7.15798e+09 
7.00648e+09 6.74859e+09 6.86978e+09 6.59767e+09 7.05292e+09 7.01925e+09 7.1999e+09 7.07054e+09 6.8205e+09 
6.81934e+09 6.90552e+09 6.93954e+09 7.20524e+09 6.9183e+09 6.78272e+09 6.61372e+09 6.74819e+09 7.02286e+09 
6.86063e+09 6.75549e+09 6.95537e+09 7.12719e+09 7.1968e+09 7.38035e+09 6.94947e+09 6.714e+09 6.98152e+09 
6.77847e+09 6.87998e+09 7.00915e+09 7.2927e+09 7.55928e+09 7.00121e+09 6.76733e+09 6.65028e+09 6.72683e+09 
6.93351e+09 7.31967e+09 6.95862e+09 6.74809e+09 7.02897e+09 7.17919e+09 6.7917e+09 6.90381e+09 6.70622e+09 
7.04417e+09 6.71712e+09 7.1328e+09 7.40879e+09 7.26651e+09 7.1024e+09 7.40565e+09 6.8644e+09 7.12349e+09 
7.40943e+09 6.84167e+09 6.91016e+09 7.26038e+09 6.97045e+09 7.04749e+09 7.02962e+09 7.21619e+09 7.07657e+09 
7.26573e+09 7.02519e+09 6.92573e+09 7.11237e+09 7.1021e+09 7.62976e+09 7.16275e+09 6.90948e+09 7.11195e+09 
7.22704e+09 6.86612e+09 7.03059e+09 6.78455e+09 6.96967e+09 7.11598e+09 6.73024e+09 6.72092e+09 7.22949e+09 
6.97627e+09 7.06717e+09 6.92862e+09 7.17726e+09 7.09348e+09 6.99833e+09 7.19668e+09 6.90082e+09 7.01371e+09 
6.69726e+09 7.00601e+09 6.90448e+09 6.9927e+09 7.42608e+09 7.39757e+09 6.70929e+09 6.74224e+09 7.10492e+09 
7.00356e+09 7.14653e+09 6.99499e+09 7.22425e+09 6.95865e+09 6.87396e+09 7.01199e+09 6.94535e+09 6.8883e+09 
6.78747e+09 6.93957e+09 6.86581e+09 6.81075e+09 6.78106e+09 7.30364e+09 6.77512e+09 6.80369e+09 6.78934e+09 
7.03467e+09 7.27679e+09 7.02138e+09 6.85943e+09 6.88869e+09 6.86146e+09 6.81016e+09 7.20473e+09 7.19702e+09 
6.8977e+09 7.04818e+09 7.51255e+09 7.07006e+09 6.68865e+09 6.77796e+09 6.85273e+09 6.83217e+09 6.83181e+09 
6.81619e+09 6.90591e+09 7.22243e+09 6.99235e+09 7.01935e+09 7.14903e+09 6.85065e+09 6.74376e+09 6.71043e+09 
7.38433e+09 7.29023e+09 7.16689e+09 7.09402e+09 6.78054e+09 6.88787e+09 6.90233e+09 6.99238e+09 6.92655e+09 
7.04075e+09 6.97814e+09 7.48929e+09 6.71964e+09 6.91735e+09 6.89585e+09 6.89282e+09 6.79588e+09 6.72158e+09 
6.95148e+09 7.06573e+09 7.14119e+09 6.98715e+09 6.97352e+09 7.16548e+09 7.09045e+09 6.99418e+09 6.90518e+09 
7.00614e+09 6.88716e+09 6.66685e+09 6.90953e+09 7.02027e+09 7.32665e+09 7.11953e+09 6.96284e+09 6.70557e+09 
6.94993e+09 7.1163e+09 6.98936e+09 7.2103e+09 6.81714e+09 6.91261e+09 6.95094e+09 7.73891e+09 7.10211e+09 
6.98431e+09 6.70328e+09 6.72165e+09 6.89485e+09 7.10203e+09 7.06082e+09 6.7873e+09 6.91019e+09 6.97309e+09 
7.34333e+09 6.90132e+09 7.2962e+09 7.06372e+09 7.2354e+09 6.70792e+09 6.95902e+09 6.89911e+09 6.89362e+09 
7.27494e+09 6.79636e+09 7.04668e+09 7.29562e+09 7.31376e+09 6.87699e+09 7.06792e+09 7.28183e+09 7.20673e+09 
6.79781e+09 7.07969e+09 6.95454e+09 7.22112e+09 6.85186e+09 6.74163e+09 6.83238e+09 6.9018e+09 7.05912e+09 
6.88667e+09 7.0927e+09 6.88504e+09 7.04142e+09 6.79998e+09 6.77896e+09 7.2282e+09 6.95995e+09 7.21373e+09 