# vtk DataFile Version 3.0
vtk output
ASCII
DATASET RECTILINEAR_GRID
FIELD FieldData 4
MeshName 1 1 string
mesh

CYCLE 1 1 int
10 
TIME 1 1 double
10 
avtOriginalBounds 1 6 double
0 1.95312 1.2207 1.46484 0 1.95312 
DIMENSIONS 33 5 33
X_COORDINATES 33 double
0 0.0610352 0.12207 0.183105 0.244141 0.305176 0.366211 0.427246 0.488281 
0.549316 0.610352 0.671387 0.732422 0.793457 0.854492 0.915527 0.976562 1.0376 
1.09863 1.15967 1.2207 1.28174 1.34277 1.40381 1.46484 1.52588 1.58691 
1.64795 1.70898 1.77002 1.83105 1.89209 1.95312 
Y_COORDINATES 5 double
1.2207 1.28174 1.34277 1.40381 1.46484 
Z_COORDINATES 33 double
0 0.0610352 0.12207 0.183105 0.244141 0.305176 0.366211 0.427246 0.488281 
0.549316 0.610352 0.671387 0.732422 0.793457 0.854492 0.915527 0.976562 1.0376 
1.09863 1.15967 1.2207 1.28174 1.34277 1.40381 1.46484 1.52588 1.58691 
1.64795 1.70898 1.77002 1.83105 1.89209 1.95312 
CELL_DATA 4096
SCALARS simdata double
LOOKUP_TABLE default
6.84905e+09 6.79504e+09 6.94699e+09 6.96793e+09 6.9833e+09 7.17898e+09 7.27196e+09 7.20091e+09 7.32037e+09 
7.02945e+09 7.24494e+09 6.94346e+09 6.64248e+09 6.81562e+09 7.00216e+09 7.09497e+09 7.34658e+09 6.82781e+09 
7.14978e+09 7.04488e+09 7.10656e+09 7.23719e+09 6.67987e+09 6.98062e+09 6.8045e+09 7.02935e+09 6.89335e+09 
6.94785e+09 7.30587e+09 7.13207e+09 6.98772e+09 7.19776e+09 6.80728e+09 6.92784e+09 7.08014e+09 7.00682e+09 
7.08252e+09 7.40549e+09 7.47039e+09 7.31488e+09 7.14823e+09 6.92102e+09 7.27118e+09 7.01616e+09 6.98861e+09 
6.93541e+09 7.1711e+09 6.79044e+09 7.19263e+09 6.80585e+09 6.88059e+09 6.85255e+09 7.13988e+09 6.82388e+09 
6.69139e+09 6.70188e+09 6.84565e+09 6.69196e+09 6.64207e+09 6.53091e+09 7.12625e+09 7.15967e+09 7.12059e+09 
7.3053e+09 7.16999e+09 6.71424e+09 7.12805e+09 6.82428e+09 6.98439e+09 7.2024e+09 6.73918e+09 6.77111e+09 
6.98619e+09 6.86444e+09 6.78133e+09 6.7368e+09 6.85492e+09 6.76885e+09 6.87431e+09 6.8491e+09 6.62709e+09 
6.66235e+09 6.89051e+09 6.76109e+09 6.98604e+09 6.79411e+09 6.74153e+09 7.04713e+09 6.73022e+09 6.89668e+09 
6.7875e+09 6.74742e+09 7.00289e+09 6.90109e+09 7.20328e+09 7.08147e+09 6.59308e+09 6.94147e+09 6.852e+09 
7.25074e+09 6.98799e+09 6.78051e+09 6.94163e+09 7.03225e+09 6.81785e+09 6.82537e+09 6.90262e+09 6.80129e+09 
6.99416e+09 6.91875e+09 6.79043e+09 7.07789e+09 6.85841e+09 7.00874e+09 6.87773e+09 7.07373e+09 7.05482e+09 
6.73108e+09 7.02342e+09 6.58861e+09 6.73387e+09 6.77915e+09 6.77671e+09 6.68283e+09 6.90642e+09 6.82073e+09 
7.09503e+09 7.08652e+09 6.74642e+09 6.64198e+09 6.80177e+09 6.99711e+09 7.26032e+09 7.10038e+09 7.13392e+09 
7.32387e+09 7.0572e+09 7.18289e+09 6.94171e+09 6.82363e+09 6.92327e+09 6.75719e+09 6.89362e+09 6.96896e+09 
6.86107e+09 7.11994e+09 6.78274e+09 6.86507e+09 6.86129e+09 7.06133e+09 6.86762e+09 7.04939e+09 6.79373e+09 
6.87911e+09 6.95176e+09 6.7696e+09 6.96754e+09 7.07083e+09 7.20687e+09 6.97649e+09 6.64052e+09 6.96223e+09 
6.79889e+09 6.91363e+09 7.15892e+09 6.98711e+09 6.92322e+09 7.07096e+09 6.96794e+09 7.13559e+09 7.09239e+09 
6.76524e+09 6.94314e+09 6.86298e+09 7.04425e+09 6.66384e+09 6.76503e+09 7.31039e+09 6.79449e+09 6.76634e+09 
6.93242e+09 6.89515e+09 6.61148e+09 6.70357e+09 6.94264e+09 6.78231e+09 6.90358e+09 6.73812e+09 7.25187e+09 
7.21477e+09 7.24724e+09 6.97344e+09 7.10373e+09 6.67872e+09 6.7615e+09 6.92878e+09 6.74203e+09 7.01763e+09 
7.02056e+09 6.95534e+09 7.23232e+09 7.16951e+09 7.00453e+09 6.98979e+09 7.16293e+09 6.75664e+09 7.09069e+09 
6.88253e+09 6.73232e+09 6.92631e+09 6.82755e+09 6.9868e+09 7.08955e+09 6.66511e+09 6.66088e+09 6.78119e+09 
6.78046e+09 6.8646e+09 6.73393e+09 6.60898e+09 7.22101e+09 6.96707e+09 7.2128e+09 6.96871e+09 6.67475e+09 
6.5992e+09 6.65382e+09 6.63282e+09 7.12478e+09 6.93736e+09 6.87599e+09 6.81157e+09 6.9633e+09 6.9893e+09 
7.03213e+09 6.8341e+09 6.85627e+09 6.84477e+09 6.8619e+09 6.83089e+09 7.01115e+09 7.11607e+09 6.98469e+09 
7.04081e+09 6.99161e+09 6.74982e+09 6.85455e+09 6.8319e+09 6.91486e+09 6.95145e+09 6.84541e+09 6.80689e+09 
6.83537e+09 6.79386e+09 7.27153e+09 6.97325e+09 6.82903e+09 7.24806e+09 6.98539e+09 6.9922e+09 6.90985e+09 
7.03548e+09 7.09807e+09 6.74423e+09 7.08832e+09 7.05557e+09 6.80012e+09 7.09402e+09 7.02399e+09 6.86717e+09 
6.84653e+09 6.81534e+09 6.82185e+09 6.76334e+09 6.84608e+09 6.70718e+09 7.04021e+09 6.97084e+09 6.88002e+09 
6.98881e+09 7.01228e+09 6.80552e+09 6.78041e+09 6.72737e+09 7.45614e+09 6.90089e+09 6.90019e+09 6.95441e+09 
6.64329e+09 6.75645e+09 6.73026e+09 6.90655e+09 6.8969e+09 6.70229e+09 6.94765e+09 7.10858e+09 6.9978e+09 
7.11882e+09 6.84599e+09 6.8165e+09 6.7135e+09 6.5725e+09 6.91004e+09 6.94387e+09 6.93053e+09 6.86666e+09 
6.83901e+09 6.62713e+09 6.52884e+09 6.70073e+09 7.11949e+09 7.18819e+09 6.95677e+09 6.90198e+09 7.05281e+09 
7.02162e+09 7.04043e+09 7.01198e+09 6.90381e+09 6.85044e+09 6.6704e+09 7.28857e+09 6.90853e+09 6.95713e+09 
6.77569e+09 6.84396e+09 6.97358e+09 6.89864e+09 6.75972e+09 7.1383e+09 7.20551e+09 7.22522e+09 7.08315e+09 
6.78662e+09 6.80526e+09 6.74471e+09 6.84131e+09 6.79514e+09 6.67666e+09 6.61424e+09 6.82562e+09 6.77889e+09 
6.67221e+09 6.8436e+09 6.78291e+09 6.7547e+09 6.8606e+09 6.92859e+09 7.11005e+09 7.0044e+09 7.02348e+09 
6.71916e+09 6.79915e+09 7.13045e+09 6.91929e+09 6.95345e+09 7.09733e+09 7.07358e+09 7.00039e+09 6.76511e+09 
6.68912e+09 7.00966e+09 7.49747e+09 7.08697e+09 7.08848e+09 6.82764e+09 6.82982e+09 6.87771e+09 6.9974e+09 
7.01621e+09 6.68535e+09 6.84597e+09 7.01889e+09 7.1374e+09 6.99686e+09 6.79641e+09 7.09682e+09 7.00934e+09 
6.70441e+09 6.8785e+09 6.75011e+09 7.05746e+09 7.05457e+09 6.96581e+09 6.81579e+09 7.0223e+09 7.11442e+09 
7.0566e+09 6.62237e+09 7.03999e+09 7.02652e+09 6.82328e+09 6.83266e+09 6.9349e+09 6.94653e+09 6.67723e+09 
6.75948e+09 7.04535e+09 6.8115e+09 6.84781e+09 6.93301e+09 6.77807e+09 6.65935e+09 6.74597e+09 6.83938e+09 
7.11262e+09 7.21863e+09 7.22048e+09 6.89447e+09 6.8619e+09 7.0612e+09 6.84921e+09 7.09729e+09 6.9647e+09 
6.93419e+09 6.91122e+09 6.78033e+09 7.01773e+09 6.80072e+09 6.93987e+09 7.06113e+09 7.09297e+09 6.94524e+09 
7.21768e+09 7.27931e+09 6.94411e+09 6.55746e+09 6.8163e+09 7.00777e+09 6.67987e+09 6.71341e+09 6.65836e+09 
7.00044e+09 6.96864e+09 7.12963e+09 6.75156e+09 6.97198e+09 7.05025e+09 7.29254e+09 7.19897e+09 6.82981e+09 
7.08115e+09 7.02486e+09 7.10677e+09 7.12955e+09 7.17114e+09 6.99612e+09 7.04026e+09 6.81271e+09 6.78697e+09 
7.11643e+09 6.94011e+09 7.24042e+09 7.21021e+09 6.80645e+09 6.92916e+09 6.59711e+09 6.86423e+09 6.86591e+09 
7.05401e+09 7.11781e+09 6.74656e+09 6.69723e+09 6.97452e+09 6.96127e+09 7.0852e+09 7.0387e+09 7.16031e+09 
6.6541e+09 6.90755e+09 7.02181e+09 7.13515e+09 6.68138e+09 6.93509e+09 6.85035e+09 7.31495e+09 6.96004e+09 
6.88674e+09 6.9094e+09 7.24198e+09 6.7319e+09 7.08579e+09 6.84778e+09 6.93352e+09 6.83834e+09 7.08967e+09 
7.07795e+09 6.79906e+09 6.57779e+09 6.95359e+09 6.87915e+09 6.99401e+09 7.07066e+09 6.84216e+09 6.66959e+09 
6.8475e+09 7.12319e+09 6.84526e+09 6.68694e+09 7.29506e+09 6.61664e+09 7.17643e+09 7.05093e+09 6.84967e+09 
6.99565e+09 6.91507e+09 6.73255e+09 7.16372e+09 6.98482e+09 7.2616e+09 6.95962e+09 6.82746e+09 6.82977e+09 
6.94308e+09 7.03551e+09 6.7231e+09 6.92132e+09 6.99129e+09 6.98163e+09 6.79781e+09 6.77266e+09 7.05933e+09 
6.88574e+09 6.65655e+09 6.82204e+09 6.96832e+09 6.65141e+09 6.84767e+09 6.80006e+09 6.83376e+09 6.996e+09 
7.00549e+09 6.69715e+09 6.96416e+09 6.76233e+09 7.3446e+09 6.98482e+09 6.98626e+09 7.17821e+09 6.91363e+09 
6.76305e+09 6.87764e+09 6.76512e+09 6.97174e+09 6.81908e+09 7.07482e+09 6.81692e+09 6.80973e+09 7.07047e+09 
7.03227e+09 7.02325e+09 7.05568e+09 7.03494e+09 6.68666e+09 6.72883e+09 6.71141e+09 7.37673e+09 6.88087e+09 
6.66935e+09 6.80056e+09 6.87645e+09 7.37548e+09 6.83026e+09 6.9069e+09 6.92694e+09 6.98944e+09 7.24892e+09 
6.86813e+09 6.64586e+09 6.98711e+09 6.96105e+09 7.01412e+09 7.05532e+09 7.32012e+09 6.9001e+09 6.87586e+09 
6.85264e+09 7.20783e+09 6.90318e+09 7.05304e+09 7.05714e+09 6.98759e+09 6.81354e+09 6.71068e+09 6.68028e+09 
7.25432e+09 6.99693e+09 7.14221e+09 6.91633e+09 6.65356e+09 6.71866e+09 7.00122e+09 7.11379e+09 6.62362e+09 
7.19665e+09 7.14573e+09 7.2169e+09 6.93709e+09 7.05979e+09 6.57585e+09 6.57567e+09 7.05571e+09 6.78296e+09 
7.01561e+09 7.0162e+09 6.95476e+09 6.75166e+09 6.99731e+09 6.84087e+09 7.09025e+09 7.08731e+09 7.12622e+09 
7.0755e+09 7.1394e+09 7.17948e+09 6.92251e+09 6.85699e+09 6.92184e+09 6.93507e+09 6.97777e+09 6.96699e+09 
6.66369e+09 6.83503e+09 7.00456e+09 7.22984e+09 7.04261e+09 6.93237e+09 7.04458e+09 7.0582e+09 7.03344e+09 
6.84159e+09 6.62816e+09 6.71873e+09 6.96253e+09 6.84469e+09 6.90228e+09 7.03578e+09 6.84896e+09 7.06667e+09 
7.04817e+09 6.81582e+09 7.10752e+09 6.73109e+09 6.68085e+09 6.92584e+09 6.95265e+09 6.9837e+09 6.97318e+09 
6.89165e+09 7.16013e+09 6.96986e+09 7.10781e+09 6.88853e+09 7.07803e+09 7.05148e+09 7.37686e+09 7.1506e+09 
6.75872e+09 6.94198e+09 7.12918e+09 7.15572e+09 6.86566e+09 6.86563e+09 6.854e+09 6.76429e+09 6.6878e+09 
6.63499e+09 6.94798e+09 6.942e+09 6.8774e+09 6.8796e+09 6.97106e+09 6.6843e+09 6.83015e+09 6.92558e+09 
6.81813e+09 6.94822e+09 7.12579e+09 6.74495e+09 6.7614e+09 6.83126e+09 7.16374e+09 7.22496e+09 7.00325e+09 
6.66984e+09 6.89728e+09 6.8178e+09 7.17142e+09 6.73558e+09 6.79503e+09 7.04359e+09 7.37928e+09 7.0331e+09 
7.31337e+09 6.93983e+09 7.16659e+09 6.87584e+09 6.96094e+09 6.9438e+09 6.71853e+09 7.04639e+09 7.09891e+09 
6.9904e+09 7.20352e+09 6.91236e+09 6.84409e+09 7.06863e+09 7.0261e+09 7.22845e+09 6.90061e+09 7.02097e+09 
6.82539e+09 6.76042e+09 7.02843e+09 7.09136e+09 7.09846e+09 6.9067e+09 7.17504e+09 6.87124e+09 7.04845e+09 
6.68148e+09 6.68397e+09 7.07279e+09 7.16259e+09 6.96868e+09 6.98528e+09 6.94792e+09 7.05115e+09 7.03006e+09 
6.85316e+09 6.88981e+09 6.86043e+09 6.8679e+09 7.15402e+09 7.10958e+09 7.20938e+09 7.19809e+09 7.09055e+09 
7.15529e+09 7.05786e+09 6.9936e+09 6.98834e+09 6.7653e+09 6.72148e+09 6.75644e+09 6.8652e+09 6.81997e+09 
7.21727e+09 6.92453e+09 6.8121e+09 6.85144e+09 6.96056e+09 7.40419e+09 7.19368e+09 6.82132e+09 7.0579e+09 
7.10207e+09 7.50734e+09 7.2064e+09 6.93582e+09 6.95483e+09 6.76972e+09 6.76769e+09 6.96916e+09 6.81508e+09 
6.77706e+09 7.01888e+09 6.6873e+09 7.01395e+09 7.37046e+09 6.91539e+09 6.80061e+09 6.91229e+09 6.89505e+09 
6.81571e+09 7.1366e+09 6.99186e+09 6.83683e+09 7.01137e+09 6.98646e+09 7.20333e+09 7.18266e+09 6.97368e+09 
6.79588e+09 7.14987e+09 6.70481e+09 6.95608e+09 7.19908e+09 6.76843e+09 6.97103e+09 6.89947e+09 6.75325e+09 
6.89768e+09 6.95103e+09 7.01386e+09 6.89227e+09 6.95808e+09 6.79045e+09 6.88002e+09 7.24858e+09 6.96538e+09 
6.97186e+09 6.81173e+09 6.91213e+09 6.80747e+09 6.7367e+09 6.65302e+09 6.98518e+09 6.88812e+09 6.95529e+09 
6.92602e+09 7.19093e+09 7.08357e+09 6.75848e+09 6.96858e+09 7.35016e+09 6.8309e+09 6.80902e+09 6.74273e+09 
7.26065e+09 7.16915e+09 7.1793e+09 6.92249e+09 6.836e+09 6.97654e+09 6.90236e+09 6.80627e+09 7.25489e+09 
7.03052e+09 6.80906e+09 6.77606e+09 6.89296e+09 7.15145e+09 6.81142e+09 6.92575e+09 7.04665e+09 6.75979e+09 
6.91378e+09 6.9547e+09 6.77175e+09 7.0246e+09 7.28369e+09 7.10047e+09 6.7644e+09 6.99724e+09 6.93755e+09 
6.84995e+09 6.81676e+09 7.05135e+09 6.78839e+09 6.7806e+09 7.30104e+09 7.08032e+09 7.09911e+09 7.41897e+09 
6.63526e+09 6.62494e+09 6.73625e+09 6.88722e+09 6.98923e+09 7.15282e+09 7.09964e+09 7.06604e+09 6.84767e+09 
7.02112e+09 7.17962e+09 7.06681e+09 7.17492e+09 6.96324e+09 6.9768e+09 6.99629e+09 6.8533e+09 6.63055e+09 
6.85152e+09 7.02751e+09 7.00733e+09 7.02462e+09 6.86035e+09 6.9182e+09 6.90413e+09 6.89803e+09 6.88528e+09 
6.63225e+09 7.09838e+09 7.31401e+09 6.93036e+09 7.05004e+09 7.02377e+09 6.83813e+09 6.85446e+09 6.71911e+09 
6.76581e+09 7.02543e+09 6.99129e+09 6.99456e+09 6.79246e+09 6.91226e+09 7.04504e+09 7.09156e+09 6.75267e+09 
6.98696e+09 6.71095e+09 6.74384e+09 6.97506e+09 7.12562e+09 6.90647e+09 6.85389e+09 6.89068e+09 7.11654e+09 
6.95549e+09 6.99956e+09 7.00457e+09 6.76923e+09 6.76046e+09 6.7926e+09 6.83137e+09 6.83331e+09 6.89421e+09 
6.6684e+09 6.73135e+09 7.05733e+09 6.83539e+09 6.73575e+09 6.70702e+09 7.09164e+09 6.79439e+09 7.14746e+09 
6.72133e+09 7.17598e+09 7.08266e+09 7.19158e+09 7.09531e+09 7.14554e+09 6.85069e+09 6.67016e+09 7.02045e+09 
6.71938e+09 6.9212e+09 6.81567e+09 6.99036e+09 6.97504e+09 7.00313e+09 6.76652e+09 7.35709e+09 6.8479e+09 
6.79925e+09 6.76702e+09 7.33774e+09 6.99177e+09 6.89194e+09 6.84788e+09 6.76264e+09 7.07287e+09 6.88359e+09 
6.63719e+09 6.88031e+09 7.14182e+09 6.93881e+09 7.03477e+09 7.04215e+09 6.87218e+09 6.78494e+09 6.66733e+09 
6.87903e+09 6.98875e+09 6.96351e+09 6.92495e+09 6.82851e+09 6.66942e+09 7.07438e+09 6.81599e+09 6.84549e+09 
7.26671e+09 7.03923e+09 6.92778e+09 6.93097e+09 6.88192e+09 6.88199e+09 7.2356e+09 7.23779e+09 7.20367e+09 
6.81551e+09 6.72536e+09 6.80149e+09 6.86477e+09 6.73706e+09 6.99753e+09 7.2011e+09 6.97259e+09 7.24092e+09 
7.16317e+09 6.68304e+09 7.10662e+09 6.75142e+09 7.0324e+09 6.8799e+09 7.21005e+09 6.97094e+09 6.71237e+09 
6.94106e+09 7.06469e+09 6.85231e+09 6.71095e+09 6.74268e+09 7.40153e+09 7.12106e+09 7.01347e+09 7.02008e+09 
6.91655e+09 6.87731e+09 6.66954e+09 7.1452e+09 6.99462e+09 6.7049e+09 6.89146e+09 7.18056e+09 7.34971e+09 
7.19412e+09 6.73822e+09 6.98078e+09 6.96692e+09 7.07607e+09 6.90318e+09 6.71661e+09 6.95187e+09 6.93586e+09 
6.91519e+09 6.77875e+09 6.93549e+09 7.06117e+09 6.87593e+09 7.01192e+09 6.89611e+09 7.17881e+09 6.97099e+09 
7.21716e+09 7.07293e+09 7.18564e+09 7.5236e+09 7.14924e+09 7.38014e+09 6.98138e+09 6.93023e+09 7.25667e+09 
6.84818e+09 6.9212e+09 6.80955e+09 6.81653e+09 6.6479e+09 6.87615e+09 6.85561e+09 6.91673e+09 6.83055e+09 
7.05365e+09 6.94392e+09 7.18249e+09 7.00175e+09 7.18237e+09 7.44596e+09 7.30089e+09 7.31293e+09 6.85762e+09 
6.8624e+09 6.95821e+09 6.77271e+09 7.08384e+09 7.00533e+09 6.98082e+09 7.00472e+09 6.82649e+09 7.49237e+09 
7.10561e+09 6.90142e+09 6.80293e+09 6.75574e+09 7.42025e+09 6.88945e+09 6.54243e+09 6.8336e+09 6.78423e+09 
6.58287e+09 6.61494e+09 6.83424e+09 6.99007e+09 7.19931e+09 7.43676e+09 6.99115e+09 7.19637e+09 6.93806e+09 
6.62574e+09 6.67955e+09 7.01508e+09 7.19191e+09 7.00594e+09 7.15799e+09 7.22889e+09 6.90018e+09 6.89346e+09 
6.83058e+09 6.89089e+09 6.81475e+09 6.911e+09 6.75268e+09 7.10283e+09 6.86806e+09 6.70731e+09 6.93186e+09 
7.27434e+09 7.13374e+09 6.87642e+09 6.852e+09 6.98927e+09 7.01474e+09 6.98287e+09 7.02118e+09 7.08007e+09 
7.17795e+09 7.04346e+09 7.15357e+09 6.9785e+09 6.85202e+09 6.75032e+09 6.89428e+09 7.52366e+09 6.94258e+09 
6.78108e+09 6.89855e+09 6.78838e+09 6.98533e+09 6.84168e+09 6.72774e+09 6.60657e+09 7.36603e+09 6.98173e+09 
6.72805e+09 6.93805e+09 7.58692e+09 7.05838e+09 7.08342e+09 7.04482e+09 7.14942e+09 6.75322e+09 6.68407e+09 
6.79318e+09 6.99452e+09 6.98473e+09 7.08063e+09 6.94141e+09 6.94377e+09 6.80825e+09 6.74984e+09 6.90145e+09 
7.08194e+09 7.31349e+09 6.88916e+09 7.28929e+09 6.91254e+09 7.34225e+09 7.25899e+09 7.15083e+09 7.04932e+09 
6.69142e+09 6.78819e+09 7.12899e+09 6.87902e+09 6.99201e+09 6.83473e+09 6.9137e+09 7.33672e+09 6.86074e+09 
7.17695e+09 7.10551e+09 7.48273e+09 7.4423e+09 6.84034e+09 7.05191e+09 6.75964e+09 6.81783e+09 7.18085e+09 
6.88326e+09 7.36322e+09 7.00773e+09 7.09615e+09 7.08017e+09 7.10658e+09 6.98826e+09 6.96553e+09 7.31777e+09 
7.2005e+09 7.11445e+09 7.22295e+09 6.84059e+09 6.95127e+09 6.70193e+09 6.8657e+09 6.9691e+09 6.80035e+09 
6.90025e+09 6.99203e+09 6.70759e+09 6.93667e+09 7.08049e+09 7.01148e+09 6.8322e+09 7.15279e+09 7.08799e+09 
6.85638e+09 6.80258e+09 6.62164e+09 6.86913e+09 6.85635e+09 6.63126e+09 6.94863e+09 6.94291e+09 6.93914e+09 
6.9985e+09 6.71618e+09 7.10178e+09 6.82027e+09 7.01494e+09 7.27705e+09 7.00817e+09 6.88605e+09 7.28505e+09 
7.28678e+09 6.89452e+09 6.74697e+09 6.6435e+09 6.76218e+09 6.66345e+09 7.18065e+09 7.09085e+09 6.94917e+09 
6.8887e+09 6.95165e+09 6.7709e+09 7.14734e+09 6.94599e+09 6.99333e+09 6.9878e+09 6.93475e+09 7.45488e+09 
6.75745e+09 7.09095e+09 6.74348e+09 6.99934e+09 7.1855e+09 6.85877e+09 6.8129e+09 7.11399e+09 7.0591e+09 
7.25659e+09 6.9173e+09 7.14952e+09 6.87942e+09 7.04417e+09 7.08104e+09 7.00282e+09 6.79342e+09 6.75917e+09 
6.97854e+09 6.96778e+09 7.17799e+09 7.09267e+09 7.38402e+09 6.64424e+09 6.84144e+09 7.18014e+09 7.20293e+09 
6.73734e+09 7.25731e+09 6.85318e+09 7.3055e+09 7.10783e+09 7.20766e+09 6.97336e+09 6.8469e+09 7.13476e+09 
6.80431e+09 6.78671e+09 6.85714e+09 6.94653e+09 6.97159e+09 7.1467e+09 6.82764e+09 7.12118e+09 7.00955e+09 
6.87784e+09 6.89025e+09 6.99253e+09 7.00388e+09 6.95463e+09 6.9144e+09 7.02116e+09 6.88645e+09 6.97983e+09 
7.01336e+09 7.12323e+09 7.12864e+09 6.84851e+09 7.3564e+09 7.06485e+09 6.89304e+09 7.11508e+09 7.0119e+09 
7.23802e+09 7.19753e+09 6.87601e+09 7.13674e+09 6.87231e+09 7.00604e+09 7.0553e+09 7.17179e+09 7.12171e+09 
6.98432e+09 7.26309e+09 7.34122e+09 7.25819e+09 7.04985e+09 6.84541e+09 7.04044e+09 6.72137e+09 6.88634e+09 
6.91522e+09 6.95368e+09 6.88809e+09 6.73361e+09 6.71612e+09 6.86534e+09 6.98154e+09 6.91519e+09 7.04351e+09 
7.24211e+09 7.05486e+09 6.85964e+09 6.93274e+09 6.98794e+09 7.0551e+09 6.76458e+09 6.65123e+09 6.8956e+09 
6.88761e+09 6.74134e+09 7.06851e+09 6.98715e+09 7.0813e+09 6.92435e+09 6.9591e+09 7.06189e+09 7.14879e+09 
6.7979e+09 6.88136e+09 7.25351e+09 7.18047e+09 6.93592e+09 6.80559e+09 6.93649e+09 6.9444e+09 6.85592e+09 
6.96448e+09 7.06601e+09 6.99681e+09 7.17149e+09 7.11155e+09 7.09886e+09 6.72207e+09 6.83689e+09 6.65504e+09 
6.84284e+09 6.92567e+09 6.67467e+09 6.69979e+09 6.65591e+09 6.74835e+09 7.45062e+09 7.00059e+09 7.08216e+09 
6.93254e+09 6.89008e+09 6.93603e+09 7.32423e+09 7.12723e+09 6.91963e+09 6.98404e+09 6.9204e+09 7.23075e+09 
6.8922e+09 6.59581e+09 6.86391e+09 6.83558e+09 6.94585e+09 6.95533e+09 7.26826e+09 6.85813e+09 6.69395e+09 
6.86764e+09 7.11992e+09 7.21755e+09 6.9791e+09 6.88031e+09 6.94183e+09 6.859e+09 6.87236e+09 6.48903e+09 
6.5175e+09 6.76531e+09 7.18077e+09 6.90099e+09 6.95802e+09 7.2104e+09 6.84956e+09 6.88737e+09 6.96366e+09 
6.91698e+09 7.07845e+09 6.95533e+09 6.73066e+09 6.80204e+09 6.80144e+09 7.04683e+09 6.91843e+09 6.79004e+09 
6.7453e+09 7.10599e+09 7.14412e+09 7.08614e+09 7.00448e+09 6.84584e+09 7.12899e+09 7.06251e+09 6.93041e+09 
6.76632e+09 6.90141e+09 6.88769e+09 6.82805e+09 6.74444e+09 6.8603e+09 6.72755e+09 6.82e+09 6.75388e+09 
7.16436e+09 6.93801e+09 7.06549e+09 6.81215e+09 7.01256e+09 7.12435e+09 7.04155e+09 6.81125e+09 6.90049e+09 
6.95596e+09 6.89107e+09 7.04203e+09 6.94409e+09 6.84551e+09 6.91718e+09 7.03104e+09 7.25523e+09 7.01642e+09 
6.91001e+09 6.89413e+09 6.93826e+09 6.76515e+09 6.88181e+09 6.78944e+09 6.74718e+09 7.16454e+09 6.5892e+09 
6.75273e+09 6.93878e+09 6.94074e+09 6.73586e+09 6.77257e+09 7.21579e+09 7.0143e+09 7.03597e+09 6.94271e+09 
6.99214e+09 6.98626e+09 6.92661e+09 6.88652e+09 6.93608e+09 6.71392e+09 6.75845e+09 7.0783e+09 6.90553e+09 
6.81443e+09 6.7334e+09 6.99089e+09 7.19516e+09 7.23684e+09 6.93267e+09 6.62946e+09 7.1787e+09 6.87574e+09 
6.67976e+09 6.66855e+09 6.92747e+09 6.9511e+09 6.90157e+09 6.68352e+09 6.87686e+09 6.70744e+09 6.89788e+09 
7.16602e+09 7.29928e+09 6.93587e+09 6.91028e+09 7.1519e+09 7.36786e+09 7.07207e+09 6.75664e+09 6.64184e+09 
7.03598e+09 6.85585e+09 6.83154e+09 6.93782e+09 6.8421e+09 6.88099e+09 7.08189e+09 7.30397e+09 7.32231e+09 
7.42766e+09 6.91426e+09 6.78866e+09 7.09391e+09 6.75938e+09 7.17385e+09 6.89944e+09 7.09528e+09 6.91773e+09 
6.85247e+09 6.55595e+09 6.70112e+09 7.06364e+09 6.8387e+09 7.11037e+09 6.90412e+09 6.9656e+09 6.95596e+09 
7.12925e+09 7.00235e+09 6.86223e+09 6.87658e+09 7.11792e+09 6.85115e+09 6.73233e+09 7.02337e+09 7.12028e+09 
6.93076e+09 6.91738e+09 6.7787e+09 6.9648e+09 6.92865e+09 7.32129e+09 6.96274e+09 7.14563e+09 7.00978e+09 
6.81144e+09 6.70601e+09 6.75931e+09 7.07003e+09 6.93633e+09 6.75229e+09 6.87729e+09 6.77064e+09 6.78916e+09 
6.7564e+09 6.7649e+09 6.99128e+09 7.15257e+09 7.15902e+09 6.86181e+09 7.03274e+09 7.18711e+09 7.02708e+09 
6.783e+09 6.78299e+09 7.06053e+09 6.844e+09 7.10368e+09 6.84257e+09 6.9271e+09 6.90547e+09 7.07867e+09 
7.18464e+09 7.04775e+09 6.83104e+09 6.99028e+09 6.93053e+09 6.67517e+09 6.67876e+09 6.77424e+09 6.88831e+09 
6.96364e+09 6.72087e+09 6.83321e+09 7.20709e+09 6.93579e+09 6.77391e+09 7.13907e+09 7.39494e+09 7.26052e+09 
6.93692e+09 6.88375e+09 6.80372e+09 6.73799e+09 7.30737e+09 6.78104e+09 7.02839e+09 6.89727e+09 7.0467e+09 
6.8093e+09 6.77505e+09 6.91954e+09 7.0502e+09 7.45046e+09 6.94844e+09 7.01344e+09 7.07157e+09 6.79087e+09 
7.04135e+09 6.76681e+09 6.88016e+09 7.03523e+09 6.69439e+09 6.85482e+09 6.8592e+09 6.93321e+09 6.94647e+09 
6.81955e+09 6.93851e+09 6.96878e+09 7.26521e+09 6.88477e+09 7.27546e+09 7.28629e+09 7.27221e+09 7.19961e+09 
6.90897e+09 6.98831e+09 6.83629e+09 7.0975e+09 7.35813e+09 6.7374e+09 7.15846e+09 6.94732e+09 7.04406e+09 
7.16437e+09 7.17213e+09 7.65438e+09 7.24904e+09 6.96107e+09 7.02022e+09 7.00168e+09 7.0228e+09 6.81483e+09 
7.00887e+09 7.07393e+09 7.15263e+09 6.87126e+09 6.71626e+09 6.92648e+09 7.00288e+09 6.92737e+09 6.8969e+09 
7.00018e+09 7.04509e+09 7.27486e+09 6.99907e+09 6.96139e+09 6.89588e+09 7.30216e+09 7.02416e+09 6.87106e+09 
6.99768e+09 6.99219e+09 7.18375e+09 7.08364e+09 6.76133e+09 7.16946e+09 6.8342e+09 6.8745e+09 6.78105e+09 
7.17444e+09 7.17366e+09 7.17036e+09 6.94997e+09 6.67448e+09 7.14911e+09 6.9404e+09 6.67979e+09 6.74085e+09 
6.91876e+09 6.96012e+09 6.85121e+09 6.80883e+09 6.89426e+09 6.90417e+09 7.01693e+09 7.48198e+09 7.06895e+09 
6.88981e+09 7.0405e+09 7.10272e+09 7.18747e+09 6.97154e+09 7.06269e+09 7.39456e+09 6.99683e+09 6.98201e+09 
6.73088e+09 7.07407e+09 7.00235e+09 7.01633e+09 6.74828e+09 7.0284e+09 6.73991e+09 6.91056e+09 6.87013e+09 
6.87701e+09 6.95282e+09 6.73632e+09 6.7098e+09 7.10251e+09 6.67827e+09 6.81831e+09 6.89938e+09 6.81457e+09 
7.13775e+09 6.88768e+09 7.36087e+09 7.31779e+09 6.83391e+09 6.89602e+09 7.41706e+09 7.21167e+09 7.41056e+09 
7.28579e+09 6.91916e+09 6.89581e+09 6.86849e+09 7.36896e+09 7.20277e+09 7.29929e+09 6.86132e+09 6.87019e+09 
6.96432e+09 6.82932e+09 6.68988e+09 6.79691e+09 6.78758e+09 6.76663e+09 6.86278e+09 6.81093e+09 6.82623e+09 
7.21834e+09 6.90797e+09 6.89607e+09 7.17571e+09 7.15321e+09 7.21997e+09 6.94693e+09 7.37453e+09 7.21409e+09 
7.0973e+09 7.05114e+09 6.88617e+09 7.02784e+09 6.98735e+09 7.51184e+09 7.11984e+09 6.77019e+09 6.82529e+09 
7.37113e+09 6.91292e+09 7.10095e+09 7.09039e+09 7.31476e+09 7.10264e+09 7.01172e+09 7.15315e+09 6.90163e+09 
6.81505e+09 6.77053e+09 6.95308e+09 7.07289e+09 7.23088e+09 6.82547e+09 6.70951e+09 6.82561e+09 6.86187e+09 
7.02611e+09 7.14358e+09 6.78563e+09 7.15984e+09 6.95297e+09 7.07356e+09 7.06669e+09 7.22759e+09 6.8451e+09 
6.85673e+09 6.68567e+09 6.64641e+09 7.12121e+09 6.98486e+09 6.83641e+09 7.00822e+09 7.09476e+09 6.79222e+09 
6.59694e+09 6.75476e+09 6.94338e+09 7.06124e+09 6.86329e+09 6.80421e+09 6.68773e+09 7.10577e+09 6.70073e+09 
7.09576e+09 6.60013e+09 7.02215e+09 7.06944e+09 6.97523e+09 6.92146e+09 7.04105e+09 6.92344e+09 7.15111e+09 
7.45307e+09 7.08886e+09 6.88511e+09 7.15348e+09 7.42805e+09 7.36743e+09 6.82021e+09 7.22369e+09 6.96444e+09 
7.00794e+09 7.29295e+09 6.9509e+09 7.14582e+09 6.55122e+09 7.14338e+09 7.16901e+09 6.72927e+09 6.97565e+09 
7.01564e+09 6.70041e+09 6.66165e+09 6.90822e+09 6.64625e+09 6.56182e+09 6.58157e+09 6.73844e+09 6.76992e+09 
6.84109e+09 6.73148e+09 6.98488e+09 7.05432e+09 6.98274e+09 7.37607e+09 6.78358e+09 7.02854e+09 7.18623e+09 
7.31712e+09 7.26642e+09 7.00062e+09 7.31067e+09 7.01336e+09 6.9087e+09 6.85379e+09 7.39909e+09 7.2007e+09 
6.80541e+09 6.91096e+09 6.82466e+09 6.74372e+09 6.91864e+09 6.80526e+09 6.8908e+09 6.90847e+09 7.03718e+09 
6.8514e+09 6.79138e+09 6.81429e+09 6.70007e+09 6.80439e+09 7.01285e+09 6.95423e+09 7.09745e+09 7.24548e+09 
6.93796e+09 6.95643e+09 7.01937e+09 7.38736e+09 7.0634e+09 7.2239e+09 6.9629e+09 7.64808e+09 7.6132e+09 
7.37294e+09 6.92845e+09 7.02261e+09 7.34416e+09 6.93551e+09 7.04709e+09 7.03277e+09 6.86309e+09 6.70951e+09 
6.89756e+09 6.96673e+09 7.23107e+09 6.92112e+09 7.00984e+09 7.03807e+09 7.26128e+09 7.10204e+09 6.77053e+09 
6.90331e+09 6.96919e+09 6.89769e+09 6.89081e+09 6.85069e+09 6.95169e+09 7.28406e+09 7.01609e+09 7.1414e+09 
6.99128e+09 7.1104e+09 6.76259e+09 6.60975e+09 6.74662e+09 7.1502e+09 7.08656e+09 6.93179e+09 6.72944e+09 
7.43554e+09 6.80453e+09 6.83351e+09 7.10198e+09 6.8147e+09 6.87865e+09 7.09178e+09 7.05e+09 6.75472e+09 
7.26447e+09 6.96758e+09 6.86532e+09 6.70043e+09 6.97563e+09 7.08309e+09 7.02226e+09 7.18632e+09 6.8316e+09 
7.00143e+09 7.17171e+09 7.17855e+09 6.7973e+09 7.12046e+09 6.98011e+09 7.16692e+09 7.33594e+09 6.9475e+09 
6.95227e+09 7.61944e+09 6.93733e+09 7.17494e+09 7.03885e+09 7.20689e+09 6.72908e+09 7.09512e+09 6.98077e+09 
6.60708e+09 7.09563e+09 7.14725e+09 7.82986e+09 6.82966e+09 6.96694e+09 6.93736e+09 6.79601e+09 6.78058e+09 
7.14103e+09 7.08823e+09 6.75747e+09 6.77124e+09 6.8413e+09 7.16481e+09 6.98781e+09 7.16774e+09 7.26595e+09 
7.57528e+09 7.00203e+09 7.14344e+09 6.92534e+09 7.15317e+09 7.34432e+09 7.18425e+09 6.5818e+09 6.78185e+09 
6.9949e+09 6.90941e+09 6.73602e+09 6.968e+09 7.01665e+09 6.70608e+09 6.92993e+09 7.11146e+09 7.02002e+09 
6.93054e+09 7.00062e+09 7.42872e+09 6.90264e+09 6.89896e+09 6.94277e+09 7.03133e+09 6.96333e+09 6.79151e+09 
7.01976e+09 6.74189e+09 7.12616e+09 7.37445e+09 7.1217e+09 7.16049e+09 7.1014e+09 7.24009e+09 7.60941e+09 
7.56497e+09 7.45305e+09 7.72516e+09 7.0665e+09 7.15309e+09 7.00181e+09 6.64444e+09 6.85251e+09 7.28038e+09 
7.05829e+09 6.76442e+09 6.95267e+09 7.10123e+09 7.24832e+09 6.89865e+09 6.90001e+09 6.78152e+09 6.8894e+09 
7.13076e+09 7.04406e+09 6.96149e+09 7.28672e+09 7.11512e+09 6.78556e+09 6.67013e+09 6.83812e+09 7.26885e+09 
6.87361e+09 6.8382e+09 7.05961e+09 7.00006e+09 7.20965e+09 6.97595e+09 6.92111e+09 6.81042e+09 7.35685e+09 
7.24037e+09 7.15895e+09 6.91093e+09 6.75564e+09 6.758e+09 6.92818e+09 7.06729e+09 7.44739e+09 7.09043e+09 
7.09977e+09 7.23243e+09 7.04964e+09 7.00064e+09 6.78388e+09 6.83872e+09 6.93841e+09 7.04871e+09 6.75488e+09 
6.8056e+09 7.06945e+09 7.08967e+09 7.05825e+09 6.84851e+09 7.16153e+09 7.22951e+09 6.99189e+09 6.88612e+09 
6.92456e+09 7.06338e+09 6.70193e+09 6.94168e+09 7.30083e+09 7.0929e+09 7.06781e+09 6.95199e+09 6.82428e+09 
6.98684e+09 6.90956e+09 7.00551e+09 7.39215e+09 7.41795e+09 7.32427e+09 7.02261e+09 6.81104e+09 6.7919e+09 
6.71209e+09 6.87852e+09 6.61973e+09 6.65098e+09 6.84143e+09 6.8122e+09 7.00572e+09 7.61909e+09 7.41764e+09 
7.15438e+09 6.98569e+09 7.00903e+09 7.07397e+09 7.10742e+09 7.1393e+09 7.52516e+09 7.10331e+09 7.60751e+09 
7.02315e+09 6.85436e+09 6.80237e+09 6.74761e+09 6.99088e+09 7.0213e+09 6.90615e+09 7.10412e+09 7.0087e+09 
6.92814e+09 7.01199e+09 6.92367e+09 7.13477e+09 6.758e+09 7.14606e+09 7.00107e+09 6.82485e+09 6.70241e+09 
6.61156e+09 6.85719e+09 7.27849e+09 6.99776e+09 7.23475e+09 7.3612e+09 6.94739e+09 7.04265e+09 7.03756e+09 
7.09069e+09 7.13618e+09 7.32402e+09 7.64184e+09 7.60289e+09 7.40143e+09 6.91906e+09 6.91698e+09 6.84687e+09 
6.90192e+09 6.95001e+09 7.07412e+09 6.86563e+09 6.79753e+09 6.7427e+09 7.20452e+09 6.76456e+09 7.42756e+09 
7.22252e+09 7.07213e+09 6.96074e+09 6.97885e+09 6.81374e+09 6.70578e+09 6.71849e+09 6.79518e+09 6.80453e+09 
6.7947e+09 7.02842e+09 6.92856e+09 7.00167e+09 7.03173e+09 7.09926e+09 6.95767e+09 6.91396e+09 7.34398e+09 
7.07441e+09 6.84737e+09 7.10045e+09 7.1686e+09 6.88665e+09 6.59897e+09 6.64584e+09 6.75828e+09 7.05161e+09 
7.56826e+09 7.42962e+09 7.08868e+09 7.08371e+09 7.15867e+09 6.84065e+09 6.93998e+09 6.84677e+09 7.23106e+09 
6.78927e+09 6.89124e+09 6.82755e+09 7.20741e+09 6.88803e+09 6.7416e+09 6.88512e+09 6.9431e+09 6.93362e+09 
7.04672e+09 6.82533e+09 6.80336e+09 7.161e+09 6.93946e+09 7.267e+09 7.23343e+09 6.7169e+09 6.79961e+09 
6.95065e+09 6.76425e+09 6.83544e+09 6.90222e+09 6.89524e+09 7.15978e+09 6.99618e+09 7.04113e+09 7.12857e+09 
7.15364e+09 6.81409e+09 6.90129e+09 6.85421e+09 6.75373e+09 6.62975e+09 7.1757e+09 6.86768e+09 7.25805e+09 
7.6885e+09 7.58767e+09 7.21778e+09 7.08331e+09 6.86069e+09 7.11977e+09 7.19826e+09 7.22278e+09 7.11886e+09 
7.27542e+09 6.76617e+09 6.76895e+09 6.86629e+09 6.83711e+09 7.01723e+09 6.79724e+09 6.667e+09 7.20489e+09 
7.13268e+09 7.05739e+09 6.79412e+09 6.83395e+09 6.88409e+09 7.26611e+09 7.08853e+09 7.33756e+09 7.13304e+09 
6.75489e+09 6.8496e+09 6.88359e+09 6.55235e+09 7.26152e+09 7.25417e+09 7.46178e+09 7.20214e+09 6.9257e+09 
6.8621e+09 6.91365e+09 7.44152e+09 7.12526e+09 7.26959e+09 7.2287e+09 7.32098e+09 6.89704e+09 7.1377e+09 
6.93694e+09 6.78788e+09 6.80291e+09 6.95217e+09 6.78781e+09 6.98553e+09 7.1528e+09 7.03973e+09 7.00717e+09 
7.06463e+09 7.23471e+09 7.17906e+09 7.46726e+09 7.31653e+09 7.00719e+09 6.81182e+09 6.76796e+09 6.59617e+09 
6.88604e+09 7.06608e+09 6.87737e+09 6.88184e+09 7.02326e+09 6.73988e+09 6.97281e+09 7.03799e+09 6.95168e+09 
6.9459e+09 7.02869e+09 7.04693e+09 6.92535e+09 6.72402e+09 6.95675e+09 6.8759e+09 6.67383e+09 6.99729e+09 
7.07144e+09 6.82392e+09 7.17782e+09 7.15508e+09 7.35936e+09 7.60275e+09 6.92976e+09 6.90321e+09 6.74357e+09 
6.81908e+09 6.88096e+09 6.73548e+09 6.84413e+09 6.9125e+09 6.86026e+09 6.74238e+09 7.21919e+09 7.22729e+09 
6.89288e+09 6.73435e+09 6.88657e+09 7.06448e+09 6.97257e+09 7.03475e+09 6.91294e+09 6.85508e+09 6.95854e+09 
6.82201e+09 6.8354e+09 6.81451e+09 7.01996e+09 6.68128e+09 6.89779e+09 6.90232e+09 7.32464e+09 7.21945e+09 
7.1041e+09 6.94671e+09 7.07403e+09 6.91974e+09 6.85951e+09 6.90524e+09 6.90156e+09 6.91542e+09 6.84931e+09 
7.00393e+09 6.84973e+09 7.23641e+09 7.32991e+09 7.24323e+09 6.85952e+09 6.74853e+09 6.95259e+09 7.03281e+09 
7.24721e+09 6.86999e+09 6.90749e+09 7.1963e+09 6.99519e+09 6.83094e+09 6.74649e+09 6.7969e+09 7.02483e+09 
6.74243e+09 6.85199e+09 6.75598e+09 6.75723e+09 6.83727e+09 6.97472e+09 6.90581e+09 6.88834e+09 6.77958e+09 
7.06175e+09 7.26396e+09 6.97247e+09 6.72431e+09 6.84976e+09 6.83549e+09 7.22941e+09 7.33625e+09 7.01258e+09 
6.97629e+09 6.89157e+09 6.92011e+09 7.11935e+09 6.89304e+09 6.77485e+09 7.24301e+09 7.20037e+09 7.4387e+09 