# vtk DataFile Version 3.0
vtk output
ASCII
DATASET RECTILINEAR_GRID
FIELD FieldData 4
MeshName 1 1 string
mesh

CYCLE 1 1 int
10 
TIME 1 1 double
10 
avtOriginalBounds 1 6 double
0 1.95312 0 0.183105 0 1.95312 
DIMENSIONS 33 4 33
X_COORDINATES 33 double
0 0.0610352 0.12207 0.183105 0.244141 0.305176 0.366211 0.427246 0.488281 
0.549316 0.610352 0.671387 0.732422 0.793457 0.854492 0.915527 0.976562 1.0376 
1.09863 1.15967 1.2207 1.28174 1.34277 1.40381 1.46484 1.52588 1.58691 
1.64795 1.70898 1.77002 1.83105 1.89209 1.95312 
Y_COORDINATES 4 double
0 0.0610352 0.12207 0.183105 
Z_COORDINATES 33 double
0 0.0610352 0.12207 0.183105 0.244141 0.305176 0.366211 0.427246 0.488281 
0.549316 0.610352 0.671387 0.732422 0.793457 0.854492 0.915527 0.976562 1.0376 
1.09863 1.15967 1.2207 1.28174 1.34277 1.40381 1.46484 1.52588 1.58691 
1.64795 1.70898 1.77002 1.83105 1.89209 1.95312 
CELL_DATA 3072
SCALARS simdata double
LOOKUP_TABLE default
6.78721e+09 6.99232e+09 7.54864e+09 6.98878e+09 6.83689e+09 6.75581e+09 6.64803e+09 6.77867e+09 7.06885e+09 
7.10542e+09 7.26793e+09 7.13556e+09 6.9909e+09 7.04855e+09 7.13063e+09 7.0088e+09 6.77265e+09 7.11073e+09 
7.36349e+09 6.9201e+09 6.89181e+09 7.38488e+09 6.93352e+09 7.02223e+09 6.81973e+09 7.00877e+09 6.76733e+09 
6.93738e+09 7.01643e+09 7.01033e+09 6.95184e+09 7.60521e+09 6.97277e+09 7.04136e+09 7.08618e+09 6.9267e+09 
7.09659e+09 6.9219e+09 7.07867e+09 6.85224e+09 6.74426e+09 6.91347e+09 7.4377e+09 6.92194e+09 6.88954e+09 
7.15038e+09 7.20452e+09 7.17148e+09 6.7428e+09 6.86049e+09 7.06552e+09 6.9497e+09 6.81037e+09 6.98592e+09 
6.72839e+09 6.97203e+09 6.71536e+09 6.73417e+09 7.0903e+09 7.15075e+09 7.29483e+09 7.07905e+09 7.10317e+09 
6.6834e+09 6.95335e+09 7.07236e+09 6.76552e+09 7.28319e+09 6.89437e+09 7.05347e+09 7.14004e+09 6.85029e+09 
6.78382e+09 7.06124e+09 6.93544e+09 6.8875e+09 7.07098e+09 6.98576e+09 7.20259e+09 7.01442e+09 7.00582e+09 
6.78972e+09 6.75939e+09 6.81328e+09 6.81749e+09 7.03488e+09 6.94042e+09 6.78159e+09 7.07759e+09 6.70101e+09 
7.2482e+09 7.43607e+09 7.37424e+09 7.0996e+09 7.37193e+09 7.30884e+09 6.95701e+09 7.00044e+09 6.99691e+09 
6.93453e+09 6.8499e+09 6.84472e+09 6.6704e+09 6.92595e+09 6.73117e+09 7.01817e+09 6.76613e+09 6.94557e+09 
6.8481e+09 7.43953e+09 6.75901e+09 6.97823e+09 6.89139e+09 7.0299e+09 7.04316e+09 6.84503e+09 6.73498e+09 
6.96089e+09 6.55914e+09 6.92775e+09 6.72534e+09 6.87545e+09 7.06337e+09 7.22863e+09 6.74902e+09 6.88187e+09 
7.09876e+09 6.75707e+09 7.03458e+09 7.19038e+09 7.03103e+09 6.8967e+09 6.92499e+09 6.72429e+09 6.7851e+09 
6.99677e+09 6.87214e+09 6.95757e+09 6.58987e+09 6.71528e+09 6.85556e+09 7.19428e+09 6.88861e+09 7.64228e+09 
7.05383e+09 6.86729e+09 7.17281e+09 7.00448e+09 7.03044e+09 7.08997e+09 6.6811e+09 6.74106e+09 6.65252e+09 
7.22253e+09 6.9122e+09 6.81752e+09 6.90594e+09 6.90276e+09 7.22371e+09 7.13561e+09 7.24347e+09 7.25819e+09 
6.98908e+09 6.97426e+09 6.7404e+09 7.14648e+09 7.20961e+09 6.81172e+09 7.03137e+09 6.86031e+09 6.80299e+09 
6.8744e+09 7.26198e+09 6.81935e+09 7.09247e+09 7.5199e+09 7.10518e+09 7.29277e+09 6.91898e+09 7.05077e+09 
6.87879e+09 7.09026e+09 6.61823e+09 6.76875e+09 6.81125e+09 7.00457e+09 7.44142e+09 7.31612e+09 7.1338e+09 
6.94578e+09 7.43522e+09 7.20886e+09 7.09244e+09 7.04677e+09 6.89553e+09 6.82924e+09 7.05883e+09 6.91202e+09 
7.02445e+09 6.96251e+09 7.22298e+09 6.93699e+09 6.97267e+09 6.96838e+09 6.85931e+09 6.76918e+09 6.84377e+09 
6.95317e+09 7.04074e+09 6.79273e+09 6.82265e+09 7.09999e+09 7.17926e+09 7.06264e+09 6.82554e+09 7.10549e+09 
6.88734e+09 7.13786e+09 7.00878e+09 6.87952e+09 6.8239e+09 6.7736e+09 6.69929e+09 6.77175e+09 6.93196e+09 
6.77517e+09 7.1619e+09 6.97997e+09 6.92163e+09 6.58339e+09 6.77489e+09 6.81525e+09 7.1826e+09 7.11019e+09 
6.71444e+09 6.76407e+09 7.12507e+09 6.96086e+09 6.82111e+09 7.1055e+09 6.96764e+09 6.9846e+09 7.21387e+09 
6.95289e+09 7.20353e+09 6.84942e+09 6.49263e+09 6.81207e+09 7.15379e+09 7.18725e+09 7.08935e+09 6.97536e+09 
6.80156e+09 6.94022e+09 6.95845e+09 6.88069e+09 6.95431e+09 6.89671e+09 7.17902e+09 6.80805e+09 6.96113e+09 
6.73288e+09 7.22979e+09 6.71824e+09 7.004e+09 6.99962e+09 6.90366e+09 6.93124e+09 7.04624e+09 6.94492e+09 
6.55372e+09 7.05107e+09 7.20314e+09 7.03141e+09 6.86112e+09 7.15293e+09 6.95565e+09 6.84998e+09 7.08474e+09 
6.68371e+09 7.07554e+09 6.84541e+09 7.276e+09 6.87617e+09 7.47619e+09 7.17021e+09 6.94475e+09 7.13074e+09 
6.97428e+09 6.75584e+09 6.81383e+09 7.09022e+09 7.29862e+09 6.94391e+09 6.75505e+09 6.80316e+09 6.93935e+09 
6.83785e+09 6.87831e+09 7.02059e+09 6.93351e+09 6.88185e+09 7.01059e+09 6.98011e+09 7.0089e+09 6.92577e+09 
6.94753e+09 7.09879e+09 7.02701e+09 7.18959e+09 6.91089e+09 6.74222e+09 7.09467e+09 7.00901e+09 7.33827e+09 
6.85315e+09 6.71342e+09 6.72639e+09 6.97209e+09 6.95629e+09 6.86491e+09 6.97616e+09 6.78406e+09 7.32728e+09 
7.02083e+09 6.95266e+09 6.83628e+09 7.04769e+09 7.06121e+09 7.07497e+09 6.98537e+09 6.695e+09 6.80372e+09 
7.19754e+09 7.14728e+09 6.91965e+09 6.91146e+09 7.10643e+09 6.76011e+09 6.71291e+09 7.2221e+09 6.84873e+09 
7.02903e+09 6.78197e+09 6.94925e+09 6.85186e+09 6.79621e+09 7.20932e+09 6.79932e+09 6.74023e+09 6.86298e+09 
6.92953e+09 7.0821e+09 6.76763e+09 6.9274e+09 7.5594e+09 6.88523e+09 7.23119e+09 7.29853e+09 6.85439e+09 
6.87711e+09 7.06127e+09 6.86424e+09 6.85364e+09 7.03122e+09 6.87408e+09 6.67169e+09 7.11241e+09 6.85727e+09 
6.86179e+09 7.19476e+09 7.33087e+09 7.03094e+09 7.01592e+09 6.92709e+09 6.75523e+09 7.15176e+09 7.08663e+09 
7.25944e+09 7.5258e+09 6.98827e+09 6.85275e+09 6.76248e+09 6.89647e+09 7.10895e+09 6.87762e+09 6.9646e+09 
6.95312e+09 7.05446e+09 7.30034e+09 6.76556e+09 6.76093e+09 6.82775e+09 6.73781e+09 7.02217e+09 7.02302e+09 
6.9312e+09 6.73734e+09 6.82291e+09 6.92121e+09 6.99511e+09 7.04112e+09 7.16864e+09 6.91652e+09 6.90035e+09 
6.97664e+09 7.27446e+09 6.78202e+09 7.05529e+09 7.19418e+09 6.85578e+09 6.79562e+09 6.76218e+09 6.84361e+09 
6.91069e+09 6.83618e+09 6.71125e+09 6.78343e+09 7.11064e+09 7.19648e+09 7.03035e+09 6.78545e+09 6.66869e+09 
6.83517e+09 6.87404e+09 6.7182e+09 6.85727e+09 6.86461e+09 6.93928e+09 6.78838e+09 6.92398e+09 6.89678e+09 
6.98511e+09 6.82224e+09 6.89546e+09 7.00554e+09 7.02231e+09 7.08365e+09 6.82763e+09 6.68352e+09 7.21755e+09 
6.95676e+09 7.12499e+09 6.90225e+09 7.08265e+09 6.73689e+09 6.70974e+09 6.84925e+09 6.72863e+09 6.79094e+09 
6.95886e+09 7.24179e+09 6.86557e+09 6.92522e+09 7.01576e+09 6.79025e+09 6.81134e+09 7.20172e+09 6.89548e+09 
7.0619e+09 7.11704e+09 6.84265e+09 6.759e+09 6.71599e+09 6.78017e+09 6.86172e+09 6.82504e+09 6.88641e+09 
6.78462e+09 6.85117e+09 7.15684e+09 6.94373e+09 6.88883e+09 6.86581e+09 7.11423e+09 7.11997e+09 6.98895e+09 
6.80491e+09 6.7492e+09 6.9719e+09 7.16665e+09 6.63866e+09 7.11681e+09 6.93019e+09 6.96165e+09 6.93314e+09 
6.70043e+09 6.99767e+09 6.83175e+09 6.61465e+09 6.87234e+09 7.01663e+09 6.84786e+09 6.84729e+09 6.91336e+09 
7.23526e+09 6.9846e+09 6.81637e+09 6.88647e+09 7.00068e+09 6.90119e+09 6.74573e+09 6.91667e+09 7.03324e+09 
7.05097e+09 6.86566e+09 6.87504e+09 7.02325e+09 6.67384e+09 7.21598e+09 7.07207e+09 6.76771e+09 6.87577e+09 
6.7121e+09 6.96195e+09 7.12438e+09 6.91978e+09 6.79707e+09 6.99498e+09 7.05429e+09 7.02341e+09 7.08147e+09 
6.93422e+09 6.75015e+09 7.06431e+09 6.69713e+09 6.89372e+09 7.09982e+09 7.22681e+09 6.76891e+09 6.88523e+09 
6.77608e+09 6.82841e+09 6.83202e+09 7.11311e+09 6.52615e+09 7.06081e+09 6.78412e+09 6.77932e+09 6.69779e+09 
6.92815e+09 6.91595e+09 7.2758e+09 6.9927e+09 6.91247e+09 6.98003e+09 6.91001e+09 6.97926e+09 7.09596e+09 
6.89623e+09 6.75275e+09 6.69049e+09 7.15754e+09 7.11055e+09 6.77675e+09 6.66692e+09 6.86277e+09 6.62899e+09 
6.92048e+09 6.74083e+09 6.96855e+09 6.7949e+09 6.82294e+09 6.99946e+09 6.86102e+09 6.92682e+09 7.06442e+09 
6.99899e+09 7.16325e+09 7.14305e+09 6.88389e+09 6.79387e+09 6.96977e+09 6.83967e+09 6.85742e+09 7.11794e+09 
6.74951e+09 7.0054e+09 6.8777e+09 6.86135e+09 6.6995e+09 6.81241e+09 6.93534e+09 6.94747e+09 7.03929e+09 
6.82191e+09 6.91723e+09 6.85558e+09 6.98067e+09 6.9626e+09 6.97046e+09 6.96615e+09 6.79636e+09 7.10961e+09 
7.08744e+09 7.14214e+09 6.93699e+09 7.18273e+09 7.94413e+09 7.02325e+09 6.95071e+09 7.04927e+09 6.88032e+09 
6.69918e+09 6.7605e+09 6.88429e+09 6.74249e+09 6.91305e+09 6.96459e+09 6.84762e+09 7.04611e+09 6.91312e+09 
6.89383e+09 6.85445e+09 6.94274e+09 6.86702e+09 7.14854e+09 7.16433e+09 6.8983e+09 6.85018e+09 7.34975e+09 
6.86818e+09 7.07279e+09 7.17658e+09 6.89405e+09 6.85843e+09 6.72675e+09 6.98456e+09 7.12919e+09 6.83788e+09 
7.54004e+09 6.93325e+09 7.23067e+09 6.96576e+09 7.11023e+09 6.68333e+09 6.67845e+09 7.11645e+09 6.89362e+09 
7.24953e+09 7.25953e+09 7.10912e+09 7.3126e+09 6.83502e+09 6.63946e+09 7.04954e+09 7.01815e+09 7.01809e+09 
7.17027e+09 6.93657e+09 7.06637e+09 6.87191e+09 7.04808e+09 6.79637e+09 7.06771e+09 6.78476e+09 6.76569e+09 
7.12417e+09 6.70158e+09 7.06875e+09 6.72017e+09 6.87842e+09 6.9029e+09 7.1423e+09 7.10104e+09 7.09562e+09 
6.91828e+09 6.66588e+09 6.88584e+09 7.23104e+09 6.78718e+09 7.26092e+09 6.89653e+09 6.83883e+09 6.98288e+09 
6.85198e+09 6.49703e+09 7.00616e+09 6.96207e+09 7.02431e+09 6.87715e+09 6.85709e+09 6.87952e+09 6.86503e+09 
6.77598e+09 6.88991e+09 6.8741e+09 7.18682e+09 7.15858e+09 7.02012e+09 7.3109e+09 7.10834e+09 6.9673e+09 
7.01774e+09 7.58377e+09 6.98656e+09 6.64377e+09 6.64485e+09 6.77134e+09 7.16228e+09 7.10344e+09 6.90892e+09 
6.92206e+09 6.88668e+09 7.00004e+09 6.98752e+09 7.05614e+09 7.23245e+09 6.62551e+09 6.81209e+09 6.9235e+09 
6.97605e+09 6.94992e+09 7.05515e+09 7.03915e+09 7.0982e+09 7.25653e+09 6.84263e+09 7.05015e+09 6.98943e+09 
6.64631e+09 6.92103e+09 6.80786e+09 7.19658e+09 6.99517e+09 6.86469e+09 7.03155e+09 7.0062e+09 6.99889e+09 
7.11738e+09 6.76259e+09 6.92862e+09 6.82718e+09 6.88607e+09 7.18873e+09 7.05818e+09 7.14323e+09 7.08866e+09 
7.04558e+09 6.86407e+09 7.01622e+09 6.80293e+09 7.1185e+09 7.1027e+09 6.87796e+09 7.30803e+09 7.91827e+09 
7.11511e+09 6.88497e+09 7.1184e+09 7.18903e+09 7.39854e+09 6.78311e+09 7.20364e+09 6.87583e+09 7.08845e+09 
6.80978e+09 6.97623e+09 6.92467e+09 7.47647e+09 7.28571e+09 6.76775e+09 6.62545e+09 6.70247e+09 6.67668e+09 
7.15337e+09 7.06337e+09 7.20863e+09 6.80304e+09 7.39652e+09 7.0273e+09 6.92552e+09 7.03615e+09 7.15154e+09 
6.98644e+09 6.92954e+09 7.01596e+09 7.04894e+09 7.20698e+09 6.81178e+09 7.01424e+09 6.86101e+09 6.96766e+09 
7.09346e+09 6.8494e+09 6.90771e+09 6.86252e+09 7.05477e+09 7.06405e+09 6.97577e+09 7.06703e+09 7.02434e+09 
7.17642e+09 7.35772e+09 7.02753e+09 6.82097e+09 6.81823e+09 7.24953e+09 6.83263e+09 7.00101e+09 7.10076e+09 
7.32428e+09 6.95071e+09 7.07183e+09 6.93486e+09 6.92757e+09 6.97577e+09 6.99008e+09 7.08709e+09 7.17758e+09 
7.2509e+09 6.95326e+09 7.21166e+09 7.25066e+09 6.95813e+09 6.79984e+09 7.10443e+09 6.96479e+09 7.03806e+09 
7.10491e+09 7.05601e+09 6.98761e+09 6.94875e+09 6.82919e+09 7.057e+09 6.81642e+09 6.7915e+09 6.74833e+09 
6.93469e+09 7.17931e+09 7.15239e+09 7.22817e+09 7.16477e+09 7.19153e+09 6.79325e+09 7.03397e+09 6.90425e+09 
6.8569e+09 6.9429e+09 6.9132e+09 6.97436e+09 7.11013e+09 7.45495e+09 6.8184e+09 7.11542e+09 6.85036e+09 
6.98895e+09 6.87262e+09 7.10383e+09 6.94604e+09 6.7585e+09 6.87512e+09 6.95248e+09 6.86093e+09 7.13699e+09 
7.00148e+09 7.02279e+09 7.09297e+09 6.85994e+09 6.98831e+09 7.11469e+09 6.94339e+09 7.08345e+09 7.74145e+09 
7.0021e+09 7.25653e+09 7.43103e+09 6.95744e+09 6.92699e+09 6.83246e+09 7.00281e+09 7.16191e+09 6.86925e+09 
6.95253e+09 6.61185e+09 7.0968e+09 6.78717e+09 6.98095e+09 6.65098e+09 6.64972e+09 6.92246e+09 7.17922e+09 
7.02103e+09 7.13719e+09 6.82767e+09 6.66626e+09 6.88056e+09 6.7679e+09 6.93008e+09 7.64357e+09 7.18245e+09 
7.13474e+09 7.0108e+09 6.85633e+09 6.68354e+09 6.84019e+09 6.90024e+09 7.08805e+09 7.05748e+09 6.98745e+09 
7.14834e+09 6.82734e+09 6.96323e+09 7.09912e+09 7.33406e+09 7.17915e+09 7.26645e+09 7.06955e+09 7.03877e+09 
6.75594e+09 6.93889e+09 6.71982e+09 6.75913e+09 7.31839e+09 7.11317e+09 6.90112e+09 6.98853e+09 6.78107e+09 
6.87933e+09 7.03807e+09 7.26499e+09 7.23369e+09 6.86838e+09 6.83367e+09 6.92972e+09 7.41808e+09 7.00973e+09 
6.87331e+09 7.00184e+09 7.05052e+09 6.95886e+09 7.07664e+09 7.09958e+09 6.88679e+09 6.68837e+09 7.01147e+09 
7.05385e+09 7.43739e+09 6.89921e+09 7.03254e+09 7.00061e+09 7.02155e+09 7.17591e+09 6.78966e+09 6.69681e+09 
6.99749e+09 6.96194e+09 6.79503e+09 6.65228e+09 6.93141e+09 6.92677e+09 6.91013e+09 7.23761e+09 7.03252e+09 
7.06259e+09 6.75456e+09 6.93014e+09 7.1856e+09 7.55732e+09 7.79897e+09 6.80386e+09 6.92434e+09 7.00826e+09 
7.13969e+09 6.64665e+09 6.84634e+09 6.96505e+09 7.21733e+09 7.03981e+09 7.0108e+09 6.7183e+09 7.17304e+09 
7.00709e+09 6.97151e+09 6.74485e+09 6.78069e+09 7.15299e+09 6.96434e+09 6.78315e+09 7.0682e+09 6.82237e+09 
6.65636e+09 7.14134e+09 6.96714e+09 7.34174e+09 7.10919e+09 7.14918e+09 6.89227e+09 7.032e+09 6.96695e+09 
6.95363e+09 7.25221e+09 6.81757e+09 6.67594e+09 6.95793e+09 7.59629e+09 6.84225e+09 7.01132e+09 6.87568e+09 
7.21907e+09 7.34863e+09 6.85694e+09 6.97561e+09 7.08313e+09 6.98016e+09 6.72322e+09 7.18456e+09 6.67746e+09 
6.84459e+09 7.42065e+09 6.87411e+09 7.06372e+09 7.44585e+09 7.05139e+09 7.22856e+09 7.06946e+09 7.23672e+09 
7.14504e+09 6.88644e+09 7.019e+09 6.98813e+09 7.14529e+09 7.26649e+09 7.04244e+09 7.16118e+09 6.96005e+09 
6.65701e+09 7.53185e+09 7.06587e+09 7.22245e+09 7.03178e+09 6.9755e+09 6.87187e+09 7.46011e+09 7.14811e+09 
7.14997e+09 6.97379e+09 6.95849e+09 6.91841e+09 6.78224e+09 7.0902e+09 6.87206e+09 7.02802e+09 6.92817e+09 
7.10293e+09 7.0292e+09 7.08428e+09 7.32158e+09 7.12224e+09 6.87958e+09 7.0246e+09 6.73207e+09 7.08789e+09 
7.1685e+09 7.57103e+09 7.32497e+09 6.80243e+09 6.77584e+09 6.78435e+09 6.90397e+09 6.95957e+09 7.14847e+09 
6.79473e+09 7.15707e+09 7.59766e+09 7.15399e+09 6.76321e+09 6.90961e+09 6.81297e+09 6.92361e+09 6.93208e+09 
6.95838e+09 6.87512e+09 6.92107e+09 6.96949e+09 7.0728e+09 7.22884e+09 7.04517e+09 7.46566e+09 7.43785e+09 
7.08218e+09 7.26149e+09 6.89789e+09 6.76725e+09 7.01999e+09 6.91712e+09 7.16992e+09 7.15043e+09 6.94315e+09 
6.94744e+09 6.74798e+09 7.30576e+09 6.99929e+09 7.02103e+09 6.84527e+09 6.99363e+09 7.00504e+09 6.8445e+09 
7.00793e+09 7.07749e+09 7.19518e+09 6.95967e+09 7.0145e+09 6.80345e+09 6.80434e+09 6.95948e+09 7.13578e+09 
6.73449e+09 7.17642e+09 7.06362e+09 7.10082e+09 7.0709e+09 7.22909e+09 7.02198e+09 6.80138e+09 6.94611e+09 
6.90992e+09 6.84754e+09 7.06896e+09 7.28611e+09 7.14267e+09 6.72473e+09 6.61068e+09 7.06958e+09 7.06099e+09 
6.99534e+09 6.84733e+09 6.98168e+09 6.99913e+09 7.20357e+09 7.03819e+09 7.01888e+09 6.85605e+09 6.66647e+09 
7.13808e+09 6.75118e+09 6.87789e+09 6.85132e+09 6.83904e+09 6.85026e+09 7.19046e+09 7.08572e+09 6.86979e+09 
6.94592e+09 7.02728e+09 7.2372e+09 6.92721e+09 7.02393e+09 6.83731e+09 7.08505e+09 7.4729e+09 7.39838e+09 
7.40792e+09 6.88596e+09 6.75177e+09 6.97872e+09 7.36116e+09 6.79755e+09 6.87179e+09 7.01255e+09 7.46327e+09 
7.03134e+09 7.14723e+09 6.92203e+09 6.91495e+09 6.74254e+09 6.82175e+09 6.95156e+09 6.86284e+09 6.85214e+09 
7.06442e+09 6.89701e+09 7.4765e+09 7.1898e+09 7.19245e+09 7.04616e+09 7.18604e+09 7.08485e+09 7.15483e+09 
7.1434e+09 6.86597e+09 6.80126e+09 6.97496e+09 7.3065e+09 6.80559e+09 7.06053e+09 6.74486e+09 7.53195e+09 
7.2705e+09 7.03426e+09 6.82763e+09 6.93512e+09 7.10328e+09 6.91561e+09 6.84214e+09 7.10011e+09 7.10119e+09 
6.86028e+09 6.79411e+09 7.05927e+09 7.28132e+09 7.32907e+09 6.89566e+09 7.126e+09 7.07785e+09 7.03789e+09 
7.27325e+09 7.15139e+09 7.01581e+09 7.11332e+09 7.19494e+09 6.93827e+09 7.28085e+09 7.00182e+09 6.98357e+09 
7.23032e+09 6.93646e+09 7.09856e+09 7.21499e+09 7.21265e+09 7.0748e+09 7.0364e+09 6.73837e+09 7.15959e+09 
7.23288e+09 6.87535e+09 7.0385e+09 7.17969e+09 6.82659e+09 7.41317e+09 6.77605e+09 6.83444e+09 6.98545e+09 
7.06519e+09 7.50055e+09 7.39437e+09 7.2913e+09 7.00117e+09 7.1954e+09 7.17351e+09 6.93845e+09 7.17817e+09 
7.28346e+09 6.97959e+09 6.964e+09 7.14461e+09 7.27575e+09 7.605e+09 7.23739e+09 7.19009e+09 6.9512e+09 
6.82867e+09 7.20695e+09 7.26567e+09 7.00083e+09 7.27914e+09 7.31077e+09 7.05252e+09 6.91244e+09 6.76602e+09 
7.10779e+09 7.14835e+09 7.40641e+09 7.11385e+09 6.7142e+09 6.6352e+09 6.92069e+09 7.02938e+09 7.47453e+09 
7.31021e+09 7.10697e+09 7.20523e+09 6.95861e+09 7.31091e+09 7.14554e+09 7.21822e+09 7.05986e+09 7.16951e+09 
7.05976e+09 7.19595e+09 6.87559e+09 7.09349e+09 7.31921e+09 6.94789e+09 7.33029e+09 7.46473e+09 6.94129e+09 
7.09506e+09 7.11896e+09 7.06886e+09 6.7288e+09 7.09598e+09 7.54133e+09 7.09829e+09 7.11254e+09 7.56895e+09 
6.96266e+09 6.95986e+09 7.03793e+09 6.97968e+09 7.17821e+09 7.00342e+09 7.50433e+09 6.96488e+09 7.19129e+09 
6.97156e+09 6.98976e+09 7.15401e+09 7.17166e+09 7.04645e+09 7.03491e+09 6.96083e+09 6.84386e+09 7.07436e+09 
7.45099e+09 7.24595e+09 7.53329e+09 7.13494e+09 6.95445e+09 6.76825e+09 7.00059e+09 6.70865e+09 7.07639e+09 
6.67086e+09 7.28007e+09 6.75295e+09 6.78969e+09 6.71558e+09 6.86991e+09 7.21743e+09 7.39237e+09 6.76277e+09 
7.13194e+09 7.33812e+09 7.44162e+09 6.88217e+09 7.17229e+09 7.12572e+09 7.4034e+09 7.5045e+09 7.25855e+09 
7.60345e+09 7.22808e+09 7.08029e+09 7.12762e+09 6.71897e+09 7.05951e+09 7.58058e+09 7.65165e+09 6.9397e+09 
7.11761e+09 7.08404e+09 6.88587e+09 7.04856e+09 6.81443e+09 6.88766e+09 6.90048e+09 7.0453e+09 7.0923e+09 
7.12123e+09 6.88992e+09 6.65037e+09 6.85789e+09 6.89522e+09 7.0427e+09 7.29749e+09 7.29688e+09 7.27407e+09 
7.10913e+09 7.21509e+09 6.94432e+09 6.8134e+09 7.16048e+09 7.67906e+09 7.06542e+09 7.06613e+09 6.90164e+09 
6.80155e+09 7.1586e+09 6.8578e+09 6.80739e+09 7.37723e+09 7.38453e+09 6.88915e+09 7.13079e+09 6.79138e+09 
7.18422e+09 7.10306e+09 7.15992e+09 7.25252e+09 7.27255e+09 7.04779e+09 7.04617e+09 7.08007e+09 6.80705e+09 
6.99877e+09 7.0997e+09 7.14679e+09 7.29223e+09 6.91089e+09 7.27124e+09 7.15651e+09 7.20103e+09 7.26045e+09 
7.14598e+09 7.25101e+09 6.90141e+09 6.84009e+09 7.26717e+09 7.19656e+09 6.78775e+09 6.78854e+09 6.90311e+09 
7.02697e+09 7.09657e+09 7.2692e+09 7.31955e+09 7.14126e+09 6.84428e+09 6.92517e+09 6.91526e+09 7.13423e+09 
6.6537e+09 6.97659e+09 7.31891e+09 7.13422e+09 7.03963e+09 7.02315e+09 7.37943e+09 7.37614e+09 7.49201e+09 
7.05239e+09 7.28108e+09 7.23153e+09 7.50887e+09 7.25648e+09 6.94069e+09 6.98236e+09 7.26172e+09 7.15644e+09 
6.86949e+09 6.71664e+09 7.05456e+09 6.93857e+09 6.92441e+09 7.36211e+09 7.17069e+09 6.83777e+09 6.95451e+09 
7.0588e+09 7.00497e+09 7.05987e+09 6.79011e+09 7.22191e+09 7.07522e+09 6.87336e+09 6.76667e+09 6.76022e+09 
6.87291e+09 7.09413e+09 7.01735e+09 7.14082e+09 7.01964e+09 6.76597e+09 7.28173e+09 7.30165e+09 6.91985e+09 
6.99962e+09 7.172e+09 7.17511e+09 7.05137e+09 6.97243e+09 6.99039e+09 6.86556e+09 6.99018e+09 7.03091e+09 
6.74403e+09 7.10475e+09 7.01049e+09 6.86572e+09 7.19377e+09 7.17004e+09 7.32284e+09 7.04603e+09 6.94392e+09 
7.12032e+09 6.99438e+09 7.14088e+09 7.35014e+09 6.93945e+09 7.05613e+09 7.11033e+09 7.15455e+09 6.91392e+09 
6.89576e+09 6.77233e+09 6.93898e+09 7.46962e+09 7.03252e+09 7.06154e+09 7.18524e+09 7.10014e+09 7.02773e+09 
6.75679e+09 7.06323e+09 7.23836e+09 7.06295e+09 6.66039e+09 6.79497e+09 7.08636e+09 7.00528e+09 7.26218e+09 
7.05767e+09 7.24772e+09 6.97162e+09 7.05493e+09 6.82052e+09 7.35302e+09 6.96164e+09 7.36344e+09 7.29745e+09 
7.34039e+09 7.11977e+09 7.18854e+09 7.25164e+09 7.33496e+09 7.2436e+09 6.91796e+09 7.05986e+09 7.30349e+09 
7.12976e+09 7.18365e+09 6.90733e+09 6.86283e+09 6.9713e+09 7.04334e+09 6.85619e+09 7.08633e+09 7.01566e+09 
7.11069e+09 6.86941e+09 6.9277e+09 6.95262e+09 7.13262e+09 6.99871e+09 7.00797e+09 6.91116e+09 7.29604e+09 
6.79387e+09 7.18921e+09 6.96685e+09 7.0474e+09 7.43513e+09 7.05543e+09 7.19437e+09 7.0996e+09 6.93995e+09 
7.04411e+09 7.07538e+09 6.93411e+09 6.90945e+09 7.16641e+09 6.96299e+09 6.99825e+09 7.35964e+09 7.08529e+09 
6.89597e+09 6.89316e+09 6.99615e+09 6.99454e+09 7.01012e+09 7.00813e+09 6.72498e+09 6.92684e+09 6.85565e+09 
6.8908e+09 7.24333e+09 7.02631e+09 6.81374e+09 6.9138e+09 7.13535e+09 7.36158e+09 7.0749e+09 7.31615e+09 
7.03789e+09 7.00316e+09 7.12096e+09 7.11478e+09 7.16831e+09 7.1252e+09 6.96913e+09 7.1759e+09 7.12952e+09 
6.97006e+09 7.27176e+09 6.91738e+09 7.07238e+09 6.72295e+09 6.88568e+09 6.78989e+09 6.94945e+09 7.21205e+09 
7.15507e+09 7.03796e+09 6.99977e+09 7.41053e+09 6.83723e+09 6.89053e+09 6.92207e+09 6.9533e+09 6.92228e+09 
6.9519e+09 7.14076e+09 7.37773e+09 7.03397e+09 7.02014e+09 7.26393e+09 7.29452e+09 7.21836e+09 7.07011e+09 
7.35975e+09 7.1108e+09 7.01615e+09 6.95725e+09 7.22501e+09 6.92492e+09 6.91937e+09 7.0244e+09 6.74445e+09 
6.88023e+09 6.82918e+09 7.10573e+09 6.92321e+09 6.88262e+09 6.77444e+09 6.80826e+09 7.06809e+09 6.87457e+09 
6.76677e+09 6.85051e+09 6.93057e+09 7.13451e+09 6.96714e+09 7.07645e+09 7.14144e+09 7.4391e+09 7.10547e+09 
7.20846e+09 7.57546e+09 7.52087e+09 7.13815e+09 6.91345e+09 6.9277e+09 7.17768e+09 7.17457e+09 7.03777e+09 
6.78423e+09 7.2559e+09 6.83771e+09 6.96907e+09 7.10252e+09 6.98008e+09 6.93229e+09 6.85155e+09 6.91532e+09 
6.83539e+09 6.97845e+09 6.7816e+09 6.96196e+09 7.26307e+09 7.01933e+09 6.77046e+09 6.99288e+09 6.87078e+09 
6.85047e+09 6.87997e+09 6.93312e+09 7.28434e+09 7.25257e+09 7.22896e+09 7.00396e+09 7.12521e+09 7.03436e+09 
6.81772e+09 6.61191e+09 6.97978e+09 7.05805e+09 7.1591e+09 7.27053e+09 7.04709e+09 7.00894e+09 6.90415e+09 
6.95315e+09 6.8429e+09 6.96467e+09 6.89605e+09 6.78782e+09 7.12948e+09 7.45529e+09 7.12008e+09 7.53443e+09 
6.95094e+09 6.86248e+09 6.89183e+09 6.80587e+09 6.65192e+09 6.7491e+09 6.9294e+09 6.97123e+09 7.45576e+09 
7.59045e+09 7.15647e+09 7.30741e+09 7.05399e+09 7.02788e+09 6.94271e+09 7.00524e+09 6.96461e+09 7.03808e+09 
7.10985e+09 7.32865e+09 7.10293e+09 6.73154e+09 6.81295e+09 6.9435e+09 6.90627e+09 6.44119e+09 6.80791e+09 
6.90639e+09 7.09856e+09 7.17578e+09 6.9036e+09 6.81738e+09 7.07967e+09 7.25064e+09 6.91769e+09 6.84158e+09 
7.10769e+09 6.91311e+09 7.10638e+09 6.9425e+09 7.19634e+09 7.2406e+09 6.96059e+09 7.6067e+09 7.39146e+09 
7.52199e+09 6.84619e+09 6.80027e+09 7.4367e+09 7.0908e+09 6.92633e+09 6.91377e+09 7.29228e+09 6.73364e+09 
6.96604e+09 6.9238e+09 6.83442e+09 6.91431e+09 6.76035e+09 6.80195e+09 6.7039e+09 7.09911e+09 6.95518e+09 
7.09955e+09 6.91542e+09 6.87116e+09 6.76047e+09 6.75187e+09 6.85166e+09 6.76099e+09 6.79248e+09 6.89822e+09 
7.3299e+09 7.36053e+09 7.31577e+09 7.36547e+09 7.10626e+09 7.17393e+09 6.94814e+09 6.94747e+09 7.09155e+09 
7.15404e+09 6.98914e+09 7.16016e+09 7.48644e+09 6.881e+09 7.1666e+09 6.89802e+09 7.0364e+09 6.84841e+09 
6.8615e+09 6.73056e+09 6.711e+09 7.29509e+09 6.83047e+09 7.00862e+09 7.00225e+09 6.84929e+09 6.88438e+09 
6.92778e+09 6.8724e+09 6.97372e+09 6.69489e+09 6.82966e+09 6.74864e+09 6.86523e+09 7.16001e+09 7.37152e+09 
7.04828e+09 7.12991e+09 6.96785e+09 6.92756e+09 7.04188e+09 6.8706e+09 6.77054e+09 7.01439e+09 7.35749e+09 
6.95879e+09 6.83172e+09 6.83505e+09 6.78925e+09 6.8191e+09 6.99594e+09 6.98838e+09 7.11641e+09 7.14417e+09 
7.08762e+09 7.25734e+09 6.93889e+09 6.93088e+09 6.94432e+09 6.78503e+09 6.75728e+09 6.67338e+09 6.91503e+09 
6.95992e+09 7.07471e+09 7.15434e+09 7.13304e+09 7.05073e+09 7.02431e+09 6.79309e+09 6.94204e+09 6.87771e+09 
6.9587e+09 7.23541e+09 6.7914e+09 6.92158e+09 7.16162e+09 6.90976e+09 6.81657e+09 7.00193e+09 7.17982e+09 
6.99874e+09 6.84266e+09 6.96914e+09 6.66244e+09 7.20477e+09 7.03983e+09 7.11404e+09 6.72226e+09 6.82961e+09 
7.05855e+09 7.04129e+09 6.92749e+09 6.69513e+09 6.97863e+09 6.75204e+09 6.79701e+09 7.06814e+09 7.03451e+09 
7.15177e+09 6.87176e+09 6.76885e+09 6.93436e+09 7.13527e+09 7.24405e+09 7.04898e+09 7.00653e+09 7.09834e+09 
7.60312e+09 6.82703e+09 6.67236e+09 7.20347e+09 6.8324e+09 6.91158e+09 7.11206e+09 6.94031e+09 6.95048e+09 
6.90209e+09 6.93578e+09 6.971e+09 7.39755e+09 7.11796e+09 6.9048e+09 6.84245e+09 6.68579e+09 6.73212e+09 
6.86972e+09 6.72117e+09 6.93929e+09 7.04442e+09 6.85242e+09 7.1957e+09 7.04071e+09 7.02609e+09 7.49091e+09 
7.55061e+09 7.18059e+09 7.0498e+09 6.86708e+09 6.83088e+09 7.33285e+09 6.7776e+09 7.00613e+09 7.25451e+09 
6.76173e+09 6.69444e+09 6.92852e+09 6.83296e+09 6.89815e+09 6.87223e+09 6.93708e+09 6.86462e+09 7.41686e+09 
7.08737e+09 6.89128e+09 6.74483e+09 6.69306e+09 6.6627e+09 6.88778e+09 6.78013e+09 6.96148e+09 7.00138e+09 
6.73728e+09 7.00747e+09 7.10995e+09 6.97967e+09 6.99486e+09 6.79815e+09 7.09225e+09 6.90178e+09 7.10002e+09 
7.08915e+09 6.75223e+09 6.97385e+09 6.79146e+09 6.88292e+09 7.51406e+09 7.06788e+09 6.83481e+09 6.73892e+09 
7.04195e+09 6.91258e+09 6.91141e+09 7.0473e+09 7.66876e+09 6.8873e+09 6.98581e+09 7.39037e+09 6.61039e+09 
6.90338e+09 6.65407e+09 7.11877e+09 7.13725e+09 6.78247e+09 6.9492e+09 7.03822e+09 6.92818e+09 7.13055e+09 
6.85044e+09 6.91123e+09 7.30756e+09 7.42781e+09 7.06543e+09 6.73934e+09 6.91219e+09 7.16656e+09 7.37774e+09 
7.23845e+09 6.80565e+09 6.83044e+09 6.80878e+09 6.92154e+09 6.82431e+09 6.62054e+09 7.12071e+09 7.18692e+09 
7.33471e+09 7.07229e+09 7.00745e+09 6.74785e+09 6.69396e+09 6.59762e+09 6.70466e+09 6.77371e+09 6.9839e+09 
7.09898e+09 7.11148e+09 7.04392e+09 7.08531e+09 6.80098e+09 7.10867e+09 7.21638e+09 7.29327e+09 7.35729e+09 
6.79649e+09 6.82118e+09 6.89816e+09 7.13061e+09 6.85137e+09 6.76237e+09 6.94665e+09 6.86567e+09 6.80577e+09 
6.83784e+09 7.13925e+09 7.04783e+09 7.12896e+09 7.25285e+09 7.24635e+09 7.08168e+09 6.85176e+09 6.81701e+09 
6.92884e+09 6.89581e+09 7.05513e+09 6.84975e+09 6.71877e+09 6.86004e+09 6.84486e+09 6.92849e+09 6.90983e+09 
6.94425e+09 6.94241e+09 7.01798e+09 7.28948e+09 6.9395e+09 7.07025e+09 7.29316e+09 6.82645e+09 6.88296e+09 
6.85074e+09 6.8333e+09 6.76592e+09 7.16012e+09 6.90083e+09 6.84903e+09 7.23459e+09 6.85058e+09 7.01033e+09 
7.80815e+09 7.87553e+09 7.13466e+09 7.10649e+09 6.969e+09 6.77291e+09 6.74021e+09 6.81559e+09 6.74941e+09 
7.01208e+09 7.34865e+09 6.89614e+09 7.10232e+09 7.0457e+09 6.92609e+09 6.73484e+09 6.80566e+09 6.94079e+09 
6.84342e+09 7.05668e+09 7.19157e+09 6.87076e+09 7.02012e+09 6.78921e+09 6.99186e+09 7.11019e+09 6.84518e+09 
6.96701e+09 7.01567e+09 6.7819e+09 7.30349e+09 7.4926e+09 7.79845e+09 7.45902e+09 7.13213e+09 6.90019e+09 
6.86545e+09 7.00108e+09 6.74106e+09 7.17875e+09 7.0908e+09 7.39979e+09 7.25924e+09 7.04278e+09 6.97409e+09 
7.02074e+09 6.87217e+09 6.7875e+09 6.85718e+09 7.07834e+09 7.00825e+09 7.0609e+09 6.93285e+09 6.88745e+09 
6.9539e+09 7.05331e+09 7.04178e+09 6.81493e+09 6.72952e+09 6.8985e+09 6.9755e+09 6.62452e+09 6.97465e+09 
7.04603e+09 7.09034e+09 6.95058e+09 6.92701e+09 7.16636e+09 6.78341e+09 6.91142e+09 7.18381e+09 7.0107e+09 
7.0213e+09 6.95212e+09 6.71477e+09 6.75962e+09 7.19325e+09 7.12685e+09 6.92405e+09 6.85378e+09 6.92582e+09 
6.92012e+09 6.78417e+09 6.93781e+09 6.97655e+09 6.73776e+09 7.18825e+09 6.98576e+09 6.80948e+09 6.73651e+09 
7.00321e+09 6.75683e+09 7.03711e+09 6.97849e+09 6.93959e+09 7.31251e+09 7.50121e+09 7.66319e+09 7.09142e+09 
7.04175e+09 6.80203e+09 6.97086e+09 7.01727e+09 6.97727e+09 7.12289e+09 6.66288e+09 6.73958e+09 6.74399e+09 
6.78855e+09 6.92721e+09 6.7794e+09 6.96057e+09 6.74678e+09 7.02936e+09 6.7591e+09 7.0402e+09 7.0394e+09 
6.90936e+09 7.17099e+09 6.84956e+09 7.08289e+09 6.96367e+09 6.90753e+09 7.0357e+09 6.92721e+09 6.84042e+09 
7.13738e+09 7.41185e+09 7.95319e+09 7.38184e+09 7.00743e+09 6.91847e+09 6.74976e+09 7.04279e+09 6.65364e+09 
6.81316e+09 7.0465e+09 7.21635e+09 7.15462e+09 7.12694e+09 6.90058e+09 7.20758e+09 6.89515e+09 7.04422e+09 
7.02573e+09 7.0268e+09 6.95165e+09 6.82735e+09 6.76719e+09 7.14485e+09 7.13332e+09 6.78555e+09 6.85548e+09 
6.94456e+09 6.66922e+09 6.99037e+09 6.72969e+09 6.71504e+09 6.84855e+09 6.78925e+09 6.69552e+09 6.98625e+09 
7.10461e+09 7.15214e+09 6.7689e+09 6.99363e+09 7.31121e+09 7.13596e+09 7.03159e+09 6.93976e+09 7.03275e+09 
7.01615e+09 6.86564e+09 7.06413e+09 7.14688e+09 6.97106e+09 7.21769e+09 6.81038e+09 6.89753e+09 7.10304e+09 
6.98822e+09 6.84221e+09 7.38019e+09 6.94573e+09 6.73388e+09 6.65624e+09 6.82834e+09 7.06353e+09 6.7292e+09 
6.86003e+09 6.89001e+09 6.66541e+09 7.50999e+09 7.08415e+09 6.77879e+09 6.87528e+09 6.84557e+09 6.82726e+09 
6.93037e+09 6.93904e+09 7.50922e+09 6.75972e+09 7.29374e+09 7.22183e+09 7.10209e+09 6.93422e+09 7.1665e+09 
7.13337e+09 7.23035e+09 6.81085e+09 6.83502e+09 6.74364e+09 6.9442e+09 6.93571e+09 6.8433e+09 6.95758e+09 
7.18902e+09 6.8069e+09 6.82171e+09 6.8745e+09 6.83354e+09 6.97366e+09 6.97141e+09 7.27442e+09 7.31999e+09 
7.00404e+09 7.18082e+09 6.82942e+09 7.21206e+09 7.20023e+09 7.05319e+09 6.8212e+09 6.78544e+09 6.9079e+09 
7.08439e+09 7.32278e+09 6.93874e+09 6.91632e+09 7.05405e+09 6.97079e+09 7.00123e+09 7.07818e+09 7.14497e+09 
6.96543e+09 7.13247e+09 7.56397e+09 7.02263e+09 7.22004e+09 6.95627e+09 6.89839e+09 6.823e+09 6.92563e+09 
6.63853e+09 7.2114e+09 7.25664e+09 7.11875e+09 7.15245e+09 6.84216e+09 7.16258e+09 6.97716e+09 7.03555e+09 
7.27911e+09 7.13365e+09 7.25213e+09 6.97508e+09 6.88886e+09 7.02167e+09 6.98585e+09 6.96091e+09 7.23922e+09 
7.14325e+09 6.95304e+09 7.19231e+09 7.24179e+09 6.76238e+09 7.08338e+09 7.00803e+09 7.08136e+09 6.88579e+09 
7.06076e+09 6.96674e+09 6.97541e+09 7.10128e+09 6.72782e+09 6.88386e+09 6.91883e+09 7.08576e+09 7.22655e+09 
7.17869e+09 6.95576e+09 6.90929e+09 6.82837e+09 6.89184e+09 7.13248e+09 6.9364e+09 6.95888e+09 7.2094e+09 
6.93555e+09 7.00566e+09 6.87321e+09 7.15719e+09 6.82125e+09 7.00451e+09 7.36057e+09 6.94968e+09 6.79098e+09 
6.90089e+09 7.02764e+09 7.04435e+09 6.72392e+09 6.88554e+09 7.18405e+09 6.8e+09 6.77418e+09 6.67681e+09 
6.58727e+09 7.06643e+09 6.90939e+09 7.17942e+09 6.97592e+09 7.10257e+09 7.30136e+09 6.78369e+09 7.13101e+09 
7.15323e+09 7.18806e+09 6.97179e+09 6.86195e+09 6.88046e+09 7.0011e+09 7.08184e+09 7.08598e+09 6.75519e+09 
6.73351e+09 6.80744e+09 7.09732e+09 7.05831e+09 7.02018e+09 6.87343e+09 6.96003e+09 7.30103e+09 7.07185e+09 
7.27196e+09 7.38113e+09 6.83137e+09 6.86066e+09 6.80247e+09 6.90656e+09 6.72844e+09 7.03789e+09 7.10242e+09 
6.92595e+09 6.87805e+09 6.93743e+09 7.13412e+09 7.0101e+09 7.07062e+09 7.01673e+09 7.18562e+09 6.90107e+09 