# vtk DataFile Version 3.0
vtk output
ASCII
DATASET RECTILINEAR_GRID
FIELD FieldData 4
MeshName 1 1 string
mesh

CYCLE 1 1 int
10 
TIME 1 1 double
10 
avtOriginalBounds 1 6 double
0 1.95312 0.854492 1.09863 0 1.95312 
DIMENSIONS 33 5 33
X_COORDINATES 33 double
0 0.0610352 0.12207 0.183105 0.244141 0.305176 0.366211 0.427246 0.488281 
0.549316 0.610352 0.671387 0.732422 0.793457 0.854492 0.915527 0.976562 1.0376 
1.09863 1.15967 1.2207 1.28174 1.34277 1.40381 1.46484 1.52588 1.58691 
1.64795 1.70898 1.77002 1.83105 1.89209 1.95312 
Y_COORDINATES 5 double
0.854492 0.915527 0.976562 1.0376 1.09863 
Z_COORDINATES 33 double
0 0.0610352 0.12207 0.183105 0.244141 0.305176 0.366211 0.427246 0.488281 
0.549316 0.610352 0.671387 0.732422 0.793457 0.854492 0.915527 0.976562 1.0376 
1.09863 1.15967 1.2207 1.28174 1.34277 1.40381 1.46484 1.52588 1.58691 
1.64795 1.70898 1.77002 1.83105 1.89209 1.95312 
CELL_DATA 4096
SCALARS simdata double
LOOKUP_TABLE default
6.98726e+09 6.82194e+09 7.12633e+09 7.33519e+09 6.82202e+09 6.98499e+09 7.00993e+09 6.80651e+09 6.93153e+09 
6.79208e+09 6.6777e+09 6.94432e+09 7.05146e+09 7.05126e+09 7.01715e+09 6.87399e+09 6.81941e+09 6.83755e+09 
7.00958e+09 7.09527e+09 7.12035e+09 6.76399e+09 6.56197e+09 6.76391e+09 6.9309e+09 7.02724e+09 6.95569e+09 
6.68959e+09 6.95174e+09 7.10383e+09 6.70166e+09 6.70161e+09 7.21006e+09 7.1256e+09 6.97243e+09 7.12626e+09 
6.84636e+09 7.01207e+09 7.174e+09 6.80967e+09 6.81677e+09 6.91585e+09 7.16647e+09 6.97459e+09 6.80978e+09 
6.98032e+09 7.41765e+09 6.78744e+09 6.87348e+09 6.64999e+09 6.93447e+09 6.79501e+09 6.92406e+09 7.18016e+09 
6.64005e+09 6.87106e+09 6.91528e+09 6.69077e+09 7.35865e+09 6.89683e+09 7.08269e+09 7.15849e+09 6.72709e+09 
6.82407e+09 7.58463e+09 7.31457e+09 7.2985e+09 6.92071e+09 6.81613e+09 6.93388e+09 6.90932e+09 6.83841e+09 
6.76285e+09 7.2757e+09 6.75953e+09 7.02938e+09 6.98024e+09 6.94714e+09 7.11114e+09 7.11193e+09 6.90389e+09 
6.88631e+09 6.86979e+09 6.90486e+09 7.09778e+09 6.96345e+09 6.80734e+09 7.07047e+09 7.30344e+09 6.63824e+09 
6.89803e+09 6.90579e+09 6.80022e+09 6.61806e+09 6.58692e+09 6.99521e+09 7.42613e+09 7.75682e+09 7.6797e+09 
7.07622e+09 7.04405e+09 6.90167e+09 6.90417e+09 7.21447e+09 7.10062e+09 7.07081e+09 7.02913e+09 6.78019e+09 
6.68551e+09 7.38223e+09 7.32944e+09 6.812e+09 6.92059e+09 6.97845e+09 7.02574e+09 7.1092e+09 6.98016e+09 
6.95355e+09 6.91851e+09 7.05196e+09 6.98605e+09 6.99437e+09 6.71484e+09 6.88738e+09 6.82023e+09 7.077e+09 
6.59613e+09 6.86322e+09 7.25636e+09 6.84041e+09 6.94241e+09 7.09495e+09 7.29595e+09 6.92979e+09 6.91685e+09 
6.98634e+09 6.99222e+09 6.79384e+09 6.96704e+09 6.92548e+09 6.96864e+09 6.97108e+09 7.02546e+09 6.83266e+09 
6.69242e+09 6.76449e+09 6.94514e+09 7.23703e+09 6.77604e+09 6.66489e+09 6.61488e+09 6.91323e+09 7.22975e+09 
6.81963e+09 6.71241e+09 7.10204e+09 7.44948e+09 6.96027e+09 6.95927e+09 7.03182e+09 7.00383e+09 6.96764e+09 
7.22791e+09 7.05643e+09 7.20442e+09 6.9507e+09 7.01594e+09 7.04001e+09 6.95167e+09 6.7951e+09 7.12964e+09 
7.0014e+09 6.9222e+09 6.94146e+09 7.16296e+09 6.81098e+09 6.9146e+09 6.83469e+09 6.72782e+09 6.8787e+09 
6.805e+09 6.61279e+09 6.61076e+09 6.73512e+09 6.98218e+09 6.60346e+09 6.825e+09 6.86822e+09 7.35805e+09 
7.15235e+09 6.82423e+09 6.93605e+09 7.35805e+09 7.33026e+09 7.46062e+09 6.80088e+09 6.94778e+09 7.12048e+09 
6.90372e+09 7.12814e+09 7.24534e+09 6.98258e+09 6.97191e+09 6.88891e+09 6.6434e+09 7.03014e+09 6.97765e+09 
7.34904e+09 7.05003e+09 7.09574e+09 7.29386e+09 7.25373e+09 6.99165e+09 7.08257e+09 6.90193e+09 6.95315e+09 
6.84281e+09 7.20819e+09 6.79275e+09 7.13311e+09 7.15424e+09 6.87056e+09 7.11896e+09 7.07978e+09 7.33441e+09 
7.44996e+09 7.57234e+09 6.74878e+09 6.85425e+09 6.70167e+09 6.84751e+09 6.86976e+09 7.01115e+09 7.25634e+09 
6.90897e+09 6.87768e+09 6.94884e+09 7.00625e+09 7.03269e+09 7.07023e+09 6.66236e+09 7.08127e+09 7.04863e+09 
7.05736e+09 6.94205e+09 6.84061e+09 7.00283e+09 6.85151e+09 6.83197e+09 7.07829e+09 6.80026e+09 6.82322e+09 
6.75461e+09 6.99671e+09 7.04214e+09 7.27897e+09 6.99472e+09 6.84729e+09 7.15151e+09 7.31475e+09 7.36482e+09 
6.89947e+09 7.1712e+09 7.14968e+09 7.67028e+09 6.94956e+09 7.46758e+09 7.25861e+09 6.90133e+09 7.10604e+09 
7.09304e+09 7.03e+09 6.81469e+09 7.27392e+09 7.01505e+09 6.82034e+09 6.71838e+09 6.8602e+09 6.56489e+09 
6.87278e+09 6.88315e+09 6.85729e+09 6.63501e+09 6.8724e+09 7.37972e+09 7.38672e+09 7.07995e+09 6.95118e+09 
6.94357e+09 7.19957e+09 7.14358e+09 7.48375e+09 7.20727e+09 7.03015e+09 6.87556e+09 6.9416e+09 7.53569e+09 
7.22565e+09 7.54207e+09 6.98396e+09 7.13748e+09 6.76766e+09 6.92097e+09 6.95762e+09 6.62091e+09 6.69924e+09 
6.78396e+09 6.67762e+09 6.7332e+09 6.72025e+09 6.81825e+09 7.21112e+09 6.91169e+09 7.29034e+09 6.87352e+09 
7.10883e+09 6.95655e+09 6.85829e+09 6.9208e+09 6.86396e+09 7.46071e+09 7.18777e+09 7.26761e+09 7.34632e+09 
6.92133e+09 7.18122e+09 7.04743e+09 6.98332e+09 7.10684e+09 6.83681e+09 7.41637e+09 7.56826e+09 6.81302e+09 
6.82756e+09 6.83177e+09 7.06403e+09 6.67353e+09 6.61219e+09 6.79551e+09 7.07129e+09 7.01011e+09 6.74918e+09 
6.87013e+09 6.75188e+09 6.66127e+09 7.19187e+09 6.84154e+09 6.80713e+09 7.03749e+09 6.78336e+09 6.89496e+09 
7.06897e+09 7.60875e+09 7.26656e+09 7.72152e+09 7.31117e+09 7.11706e+09 7.03886e+09 7.3572e+09 7.10657e+09 
6.96164e+09 7.21616e+09 7.34105e+09 7.73469e+09 7.20636e+09 7.09171e+09 7.01987e+09 6.93922e+09 6.72527e+09 
6.75654e+09 7.0564e+09 6.8553e+09 6.87522e+09 7.0322e+09 6.70248e+09 6.82408e+09 6.67706e+09 6.73466e+09 
6.90416e+09 6.81755e+09 7.16384e+09 6.83327e+09 7.08204e+09 6.9158e+09 6.77432e+09 6.77703e+09 7.03744e+09 
6.88886e+09 7.14971e+09 6.95151e+09 7.05858e+09 7.20422e+09 7.27306e+09 7.4454e+09 7.39001e+09 6.88731e+09 
7.02363e+09 7.16142e+09 6.89301e+09 7.03185e+09 6.81855e+09 6.94714e+09 7.07212e+09 7.06167e+09 6.85858e+09 
6.56455e+09 6.67507e+09 6.98855e+09 6.95019e+09 6.90323e+09 6.70884e+09 6.50408e+09 6.97107e+09 7.12462e+09 
7.02838e+09 7.49915e+09 6.92733e+09 7.3525e+09 7.1839e+09 7.35332e+09 7.0075e+09 7.09104e+09 7.15542e+09 
6.96137e+09 6.88741e+09 6.84913e+09 6.76124e+09 7.29494e+09 6.88856e+09 6.78678e+09 6.66914e+09 6.90033e+09 
6.87585e+09 6.80465e+09 7.02333e+09 6.73549e+09 6.49668e+09 6.64648e+09 6.54906e+09 6.65802e+09 6.81759e+09 
6.7147e+09 6.72377e+09 6.73184e+09 6.71035e+09 6.81838e+09 6.60827e+09 6.64032e+09 7.20406e+09 7.66319e+09 
7.5094e+09 6.96691e+09 6.96082e+09 7.04437e+09 7.12204e+09 6.91162e+09 7.09283e+09 6.84941e+09 7.32732e+09 
7.13429e+09 7.34773e+09 7.21442e+09 7.05506e+09 6.91294e+09 7.00594e+09 6.5665e+09 6.78219e+09 6.83738e+09 
6.93469e+09 6.87788e+09 6.86509e+09 6.87658e+09 6.87332e+09 6.90954e+09 6.85965e+09 6.82733e+09 6.7701e+09 
7.03024e+09 7.04562e+09 6.65463e+09 7.04648e+09 6.85853e+09 7.30644e+09 6.76065e+09 7.09727e+09 6.78202e+09 
7.54136e+09 7.11879e+09 7.26687e+09 7.18271e+09 7.28475e+09 7.01919e+09 6.69039e+09 6.63656e+09 6.75869e+09 
6.59416e+09 6.72391e+09 6.8323e+09 6.8383e+09 6.77603e+09 7.25912e+09 7.16424e+09 7.00333e+09 6.76666e+09 
6.67253e+09 6.96766e+09 6.69906e+09 7.11938e+09 6.81853e+09 6.91901e+09 6.87127e+09 6.91895e+09 7.51805e+09 
7.24925e+09 6.90285e+09 6.76101e+09 6.92072e+09 7.08709e+09 6.96639e+09 7.23648e+09 7.4705e+09 7.10224e+09 
6.99268e+09 7.30529e+09 7.49282e+09 6.6318e+09 6.70108e+09 7.45635e+09 7.0137e+09 6.74318e+09 6.88187e+09 
6.85567e+09 6.92025e+09 6.79098e+09 6.58696e+09 6.78662e+09 7.04867e+09 6.96837e+09 6.53563e+09 6.94977e+09 
6.82292e+09 7.13683e+09 6.98621e+09 6.89948e+09 6.85023e+09 6.77548e+09 7.05168e+09 7.25656e+09 7.24107e+09 
7.36586e+09 7.00747e+09 7.44794e+09 7.41846e+09 7.11009e+09 6.82877e+09 7.0285e+09 7.30933e+09 6.76638e+09 
6.88032e+09 7.04871e+09 7.25186e+09 6.96138e+09 6.94798e+09 6.90386e+09 6.92597e+09 6.52791e+09 7.03526e+09 
6.62895e+09 6.80303e+09 6.76003e+09 6.7707e+09 6.98714e+09 6.72867e+09 6.52302e+09 6.64577e+09 6.65818e+09 
7.46191e+09 7.57419e+09 6.96772e+09 6.9509e+09 6.65329e+09 6.91804e+09 7.16054e+09 7.39951e+09 7.00661e+09 
7.15339e+09 7.4201e+09 7.0443e+09 6.95961e+09 7.13403e+09 7.12148e+09 7.51801e+09 7.30989e+09 6.72802e+09 
6.83929e+09 6.93117e+09 6.80234e+09 6.91732e+09 6.84968e+09 6.56247e+09 6.67052e+09 7.17916e+09 6.89916e+09 
6.97585e+09 6.75031e+09 7.00012e+09 6.7305e+09 6.77782e+09 7.3033e+09 7.36415e+09 6.80856e+09 6.81524e+09 
6.90037e+09 7.74058e+09 8.28805e+09 7.44483e+09 7.25806e+09 7.09234e+09 7.06834e+09 7.14938e+09 6.8172e+09 
7.20587e+09 6.96189e+09 7.05926e+09 7.24612e+09 7.37234e+09 6.96245e+09 6.89106e+09 7.08989e+09 6.63115e+09 
6.74833e+09 6.75635e+09 6.82356e+09 6.87489e+09 6.69996e+09 6.99904e+09 6.75986e+09 6.61948e+09 6.69639e+09 
7.13631e+09 7.60065e+09 6.9964e+09 6.98615e+09 7.49404e+09 7.31311e+09 7.66842e+09 7.10965e+09 7.60047e+09 
6.96511e+09 7.02213e+09 7.31743e+09 7.49191e+09 7.22713e+09 7.06824e+09 7.60749e+09 7.36022e+09 7.07327e+09 
7.50073e+09 7.41913e+09 6.93763e+09 7.14604e+09 7.0742e+09 6.90326e+09 6.97137e+09 6.97259e+09 6.75072e+09 
6.78804e+09 6.65842e+09 6.57382e+09 6.8007e+09 7.11532e+09 6.5882e+09 7.00313e+09 6.77579e+09 6.84511e+09 
6.98584e+09 6.91425e+09 7.36176e+09 7.05317e+09 6.95684e+09 6.85023e+09 7.0034e+09 7.11622e+09 7.01504e+09 
7.21248e+09 6.912e+09 7.38191e+09 7.5102e+09 7.18838e+09 7.63852e+09 7.67917e+09 7.01001e+09 6.75164e+09 
6.72535e+09 7.0608e+09 6.63033e+09 6.83171e+09 6.66958e+09 6.78614e+09 6.93586e+09 6.91122e+09 6.67955e+09 
6.83545e+09 6.93378e+09 6.87921e+09 6.8892e+09 7.00662e+09 6.98979e+09 6.89378e+09 6.85656e+09 7.04104e+09 
6.85022e+09 7.36572e+09 6.99409e+09 7.13102e+09 7.06455e+09 6.80244e+09 6.89011e+09 6.91739e+09 7.16626e+09 
7.60442e+09 7.08618e+09 6.73022e+09 6.68384e+09 6.74787e+09 7.04219e+09 6.71998e+09 6.62531e+09 6.7374e+09 
6.76846e+09 6.80162e+09 7.15449e+09 6.77736e+09 6.73062e+09 6.97684e+09 6.99065e+09 6.99267e+09 7.11816e+09 
7.02362e+09 6.77983e+09 6.73794e+09 6.74851e+09 6.84837e+09 6.75073e+09 6.75808e+09 6.60082e+09 7.00745e+09 
7.49597e+09 6.99966e+09 7.02292e+09 7.29854e+09 7.44447e+09 7.14415e+09 7.03602e+09 6.79217e+09 6.89602e+09 
7.13388e+09 6.95801e+09 6.89305e+09 6.60724e+09 6.60084e+09 6.81556e+09 6.84993e+09 6.68928e+09 6.84978e+09 
6.6622e+09 6.94498e+09 6.93508e+09 7.17278e+09 6.98266e+09 6.87634e+09 7.43668e+09 7.06853e+09 7.2183e+09 
7.14605e+09 8.28291e+09 7.56747e+09 6.96771e+09 7.10909e+09 6.91723e+09 7.17155e+09 7.21918e+09 7.28507e+09 
7.15342e+09 6.96506e+09 6.95824e+09 7.11801e+09 7.22006e+09 6.84551e+09 6.90546e+09 6.85808e+09 7.03484e+09 
6.77644e+09 7.08581e+09 6.90411e+09 6.68288e+09 6.92293e+09 6.5751e+09 6.80534e+09 7.16425e+09 6.95201e+09 
6.82713e+09 7.18388e+09 7.22544e+09 7.00122e+09 7.04454e+09 7.21279e+09 7.31823e+09 6.89106e+09 7.48182e+09 
7.1368e+09 7.04353e+09 7.03471e+09 7.12643e+09 7.13845e+09 7.42208e+09 7.25676e+09 7.5465e+09 7.12685e+09 
7.28912e+09 6.76604e+09 6.94006e+09 7.0317e+09 6.77685e+09 7.01453e+09 7.38199e+09 6.66671e+09 7.06152e+09 
6.92083e+09 6.9954e+09 6.5603e+09 6.88861e+09 6.7118e+09 7.00621e+09 7.29296e+09 7.05947e+09 7.22283e+09 
7.05619e+09 6.96121e+09 6.95057e+09 6.95507e+09 6.64568e+09 6.97005e+09 7.06814e+09 6.65551e+09 6.98207e+09 
6.79235e+09 7.09508e+09 7.43032e+09 6.89931e+09 7.01609e+09 6.66092e+09 6.99193e+09 6.76587e+09 6.51462e+09 
6.55228e+09 6.74432e+09 6.59162e+09 6.81836e+09 6.81448e+09 6.65511e+09 6.65626e+09 6.7088e+09 6.97367e+09 
6.97529e+09 6.83385e+09 7.51792e+09 7.25322e+09 7.10964e+09 6.74063e+09 6.94182e+09 6.6876e+09 6.49051e+09 
6.83513e+09 7.31375e+09 6.94721e+09 6.70173e+09 6.75404e+09 6.97972e+09 6.97999e+09 7.34463e+09 7.23014e+09 
6.77233e+09 7.28675e+09 6.83705e+09 6.73103e+09 6.64829e+09 6.68123e+09 6.67612e+09 6.60863e+09 6.72733e+09 
6.50993e+09 6.93878e+09 6.98994e+09 7.05152e+09 6.95569e+09 7.2885e+09 7.10968e+09 7.05927e+09 7.40724e+09 
7.18787e+09 7.21293e+09 6.94342e+09 7.18897e+09 6.86258e+09 6.80758e+09 7.28852e+09 7.10991e+09 7.05113e+09 
7.04827e+09 7.20295e+09 7.25964e+09 7.31353e+09 6.87254e+09 6.95789e+09 6.99075e+09 6.96802e+09 6.92504e+09 
6.65594e+09 6.89121e+09 6.93112e+09 7.15921e+09 7.27547e+09 7.01064e+09 6.9674e+09 6.64911e+09 6.67362e+09 
6.80458e+09 7.15108e+09 7.2982e+09 7.64369e+09 7.28533e+09 7.18737e+09 7.30152e+09 6.88519e+09 7.0174e+09 
7.0434e+09 6.96252e+09 7.08249e+09 6.97307e+09 6.95088e+09 7.0202e+09 6.9697e+09 7.06717e+09 7.0203e+09 
7.01977e+09 6.84614e+09 6.91519e+09 6.54576e+09 6.46536e+09 6.68188e+09 6.83362e+09 6.90432e+09 6.92727e+09 
7.00776e+09 6.98734e+09 6.83228e+09 6.73345e+09 6.50148e+09 6.64588e+09 6.74523e+09 6.78769e+09 6.93885e+09 
6.90842e+09 6.80384e+09 7.51595e+09 7.22454e+09 6.95699e+09 6.74368e+09 6.92501e+09 7.21308e+09 7.23838e+09 
7.11745e+09 7.03474e+09 6.91377e+09 7.10128e+09 7.01867e+09 6.96147e+09 6.94154e+09 6.80736e+09 6.86646e+09 
6.63568e+09 6.64487e+09 6.58879e+09 6.7815e+09 6.76308e+09 6.75986e+09 6.95707e+09 6.87443e+09 7.05693e+09 
6.93531e+09 6.91552e+09 6.75183e+09 6.58151e+09 6.99035e+09 7.16605e+09 6.95154e+09 6.95366e+09 6.99249e+09 
6.60458e+09 6.67461e+09 6.87915e+09 6.9159e+09 6.87258e+09 7.27181e+09 7.19888e+09 7.21823e+09 6.9544e+09 
6.98303e+09 6.96254e+09 6.77598e+09 6.94689e+09 7.04424e+09 6.93139e+09 7.08714e+09 6.69314e+09 6.74746e+09 
6.47468e+09 6.60169e+09 7.03659e+09 6.84008e+09 6.95355e+09 6.93907e+09 7.01743e+09 7.56865e+09 7.38333e+09 
6.98318e+09 7.04608e+09 7.24994e+09 7.06219e+09 7.21794e+09 6.93172e+09 6.8838e+09 6.79104e+09 7.01671e+09 
7.21539e+09 6.82775e+09 6.82525e+09 6.91229e+09 7.16771e+09 7.23645e+09 6.96759e+09 6.79675e+09 6.71589e+09 
6.76661e+09 6.64143e+09 6.7663e+09 6.95144e+09 6.74909e+09 7.25676e+09 7.2756e+09 6.58347e+09 6.67052e+09 
6.49085e+09 6.63177e+09 6.65381e+09 7.37652e+09 7.41783e+09 6.87104e+09 6.93817e+09 7.35824e+09 7.36971e+09 
7.28367e+09 6.81165e+09 6.87511e+09 6.95572e+09 7.11861e+09 7.2471e+09 6.77578e+09 6.63139e+09 7.14125e+09 
6.94297e+09 7.07148e+09 6.90578e+09 6.71986e+09 6.7337e+09 6.56703e+09 6.79776e+09 6.74609e+09 6.58204e+09 
6.68996e+09 7.28364e+09 6.73885e+09 6.73317e+09 6.80166e+09 6.61916e+09 6.6011e+09 6.58549e+09 6.93972e+09 
6.94405e+09 7.092e+09 7.15709e+09 6.99784e+09 7.14252e+09 6.86961e+09 6.95443e+09 6.98878e+09 7.29972e+09 
7.34055e+09 6.9123e+09 7.2373e+09 6.93695e+09 6.70792e+09 6.89852e+09 6.83988e+09 7.10537e+09 7.16437e+09 
6.66264e+09 6.69815e+09 6.60785e+09 6.6649e+09 6.62383e+09 6.6018e+09 6.56645e+09 6.69916e+09 7.0667e+09 
7.00141e+09 6.96227e+09 6.90345e+09 6.85878e+09 6.81174e+09 6.80406e+09 6.95099e+09 7.12162e+09 7.07629e+09 
6.85283e+09 7.02536e+09 6.90283e+09 6.82338e+09 6.8962e+09 6.86967e+09 7.02966e+09 7.26105e+09 6.89535e+09 
6.75232e+09 6.79699e+09 6.75708e+09 7.08792e+09 6.86273e+09 6.93682e+09 7.19793e+09 6.95073e+09 6.78882e+09 
6.9003e+09 6.77738e+09 6.67108e+09 6.50166e+09 7.21098e+09 7.08005e+09 7.10927e+09 7.1293e+09 7.00028e+09 
7.25303e+09 6.92626e+09 7.00747e+09 6.86574e+09 6.88683e+09 6.96156e+09 7.22126e+09 7.02057e+09 7.19332e+09 
6.79988e+09 7.1933e+09 6.97569e+09 6.70128e+09 7.22242e+09 6.75309e+09 7.04198e+09 6.87799e+09 6.8606e+09 
6.83073e+09 6.80232e+09 6.97402e+09 6.85374e+09 6.65559e+09 6.85614e+09 6.97948e+09 6.97339e+09 6.86699e+09 
6.8157e+09 7.12299e+09 6.87372e+09 6.54265e+09 6.51877e+09 7.09893e+09 7.01437e+09 6.74058e+09 6.89213e+09 
7.14591e+09 7.3605e+09 7.08246e+09 7.01856e+09 6.89264e+09 7.00922e+09 6.77193e+09 7.37926e+09 7.28404e+09 
7.23442e+09 6.78547e+09 7.20787e+09 7.0905e+09 7.06674e+09 6.81666e+09 6.78323e+09 6.74051e+09 6.68033e+09 
7.01849e+09 6.56063e+09 6.68586e+09 6.66338e+09 6.58409e+09 6.74052e+09 6.83135e+09 6.99961e+09 6.67223e+09 
6.60707e+09 7.29813e+09 7.24842e+09 7.11931e+09 6.93999e+09 7.24779e+09 7.22235e+09 6.99496e+09 6.92996e+09 
7.10857e+09 7.19616e+09 6.84825e+09 7.29926e+09 7.42584e+09 7.01827e+09 6.91855e+09 7.18311e+09 7.17011e+09 
6.86016e+09 7.19402e+09 6.72718e+09 6.66901e+09 6.44374e+09 6.80519e+09 7.29399e+09 6.66399e+09 6.65681e+09 
6.63885e+09 6.85595e+09 7.32065e+09 6.87035e+09 6.72214e+09 6.62809e+09 7.30392e+09 6.92957e+09 6.815e+09 
6.68577e+09 6.73435e+09 6.87533e+09 7.20085e+09 7.11722e+09 6.82752e+09 7.12997e+09 6.81873e+09 7.02989e+09 
7.48616e+09 6.97552e+09 6.81223e+09 7.00455e+09 7.32711e+09 6.98258e+09 7.06248e+09 7.00817e+09 6.81243e+09 
6.70001e+09 6.91427e+09 7.05175e+09 6.74881e+09 6.86357e+09 6.64771e+09 7.06618e+09 6.77087e+09 6.78019e+09 
6.77583e+09 7.02127e+09 7.46139e+09 7.11767e+09 7.10315e+09 7.45617e+09 7.0438e+09 7.02888e+09 7.19316e+09 
6.96312e+09 7.11095e+09 7.25944e+09 7.72658e+09 7.20004e+09 6.98036e+09 7.13151e+09 6.90189e+09 6.67172e+09 
6.78732e+09 6.73162e+09 6.7536e+09 6.85931e+09 6.7308e+09 6.6879e+09 6.73056e+09 6.63954e+09 6.67873e+09 
6.7602e+09 7.06158e+09 6.73026e+09 6.95112e+09 6.54973e+09 6.66206e+09 6.5946e+09 7.44511e+09 7.03909e+09 
6.97595e+09 6.95426e+09 7.27361e+09 7.33911e+09 7.16521e+09 7.12687e+09 7.41286e+09 6.89002e+09 6.98149e+09 
7.06147e+09 7.50599e+09 7.10972e+09 6.8053e+09 6.75535e+09 6.86121e+09 6.88579e+09 6.89577e+09 6.73021e+09 
6.68346e+09 6.72171e+09 6.7669e+09 7.33429e+09 7.19935e+09 6.79895e+09 6.63614e+09 7.00386e+09 6.83839e+09 
6.59751e+09 6.80856e+09 6.59161e+09 7.1308e+09 7.15052e+09 6.90352e+09 7.25467e+09 7.01217e+09 6.95712e+09 
6.89768e+09 7.16317e+09 7.02764e+09 7.02216e+09 7.11318e+09 7.2288e+09 6.94643e+09 7.00822e+09 6.98976e+09 
7.23194e+09 6.97604e+09 6.92208e+09 6.74724e+09 6.75283e+09 6.73127e+09 6.9131e+09 6.90214e+09 6.79194e+09 
6.8014e+09 6.63868e+09 6.72426e+09 6.82595e+09 6.79578e+09 6.8002e+09 6.66732e+09 6.86892e+09 7.15223e+09 
7.14209e+09 6.96801e+09 6.79506e+09 6.87108e+09 6.80098e+09 7.23581e+09 6.9075e+09 6.88675e+09 6.8338e+09 
6.74897e+09 6.83109e+09 6.9666e+09 6.99708e+09 6.83872e+09 7.0031e+09 6.86934e+09 6.67046e+09 6.78369e+09 
6.81799e+09 6.7733e+09 6.70117e+09 6.76242e+09 6.64426e+09 6.70054e+09 6.77122e+09 7.04533e+09 7.09006e+09 
6.71961e+09 6.57149e+09 6.60838e+09 6.85414e+09 7.36502e+09 7.21976e+09 7.11594e+09 7.37214e+09 6.97488e+09 
6.97491e+09 6.75054e+09 6.9381e+09 7.06367e+09 7.32575e+09 7.51776e+09 6.85205e+09 6.83285e+09 6.95355e+09 
6.84503e+09 6.91521e+09 7.24698e+09 6.96509e+09 6.91371e+09 6.91979e+09 6.87294e+09 6.89393e+09 6.87245e+09 
6.951e+09 7.38876e+09 6.91896e+09 7.19925e+09 6.9013e+09 6.90365e+09 6.82263e+09 6.7996e+09 6.64215e+09 
7.38352e+09 6.84259e+09 7.14004e+09 7.15453e+09 7.05532e+09 6.89757e+09 7.09584e+09 6.86992e+09 6.88682e+09 
7.17371e+09 7.69654e+09 7.35029e+09 7.32947e+09 7.14323e+09 7.25932e+09 6.69721e+09 6.68205e+09 6.69749e+09 
7.04284e+09 6.96633e+09 6.80833e+09 7.1079e+09 7.15906e+09 7.0882e+09 6.81133e+09 6.6495e+09 6.65313e+09 
6.80987e+09 6.89434e+09 6.92871e+09 6.65551e+09 6.59324e+09 7.14602e+09 6.88671e+09 6.94256e+09 6.9691e+09 
7.62657e+09 7.47015e+09 7.25475e+09 7.25707e+09 6.89381e+09 7.19737e+09 7.20321e+09 6.85524e+09 6.91413e+09 
7.12904e+09 7.12508e+09 7.09221e+09 6.68131e+09 6.82406e+09 6.86876e+09 6.83992e+09 6.7948e+09 6.74987e+09 
6.71031e+09 6.74706e+09 6.67604e+09 6.64638e+09 6.67814e+09 6.93019e+09 6.65745e+09 6.63987e+09 6.83001e+09 
6.82971e+09 6.7137e+09 6.95953e+09 7.15978e+09 7.07033e+09 6.87664e+09 6.9418e+09 7.39759e+09 6.87494e+09 
6.90876e+09 6.94019e+09 7.06297e+09 7.0159e+09 6.89056e+09 7.10471e+09 6.85648e+09 7.11033e+09 7.06726e+09 
7.16114e+09 6.96415e+09 6.77937e+09 6.77916e+09 6.63554e+09 6.72281e+09 6.74748e+09 6.69083e+09 6.75576e+09 
6.90032e+09 6.68967e+09 6.74596e+09 6.63864e+09 6.61096e+09 6.70619e+09 7.4417e+09 6.98539e+09 7.3375e+09 
7.03668e+09 6.73495e+09 6.87906e+09 6.97591e+09 6.80699e+09 6.83655e+09 7.07529e+09 7.38784e+09 6.79371e+09 
7.08161e+09 6.95155e+09 6.85466e+09 7.09576e+09 7.291e+09 6.99096e+09 6.78564e+09 6.97839e+09 6.718e+09 
6.98021e+09 6.99259e+09 6.9799e+09 6.90391e+09 7.0456e+09 6.73954e+09 6.64192e+09 6.67696e+09 7.12378e+09 
6.77438e+09 7.06868e+09 7.00921e+09 7.28509e+09 7.05091e+09 6.74446e+09 6.70993e+09 6.94113e+09 6.78301e+09 
6.86546e+09 6.9167e+09 7.05567e+09 6.94623e+09 6.98727e+09 7.18163e+09 6.90434e+09 7.17116e+09 7.18129e+09 
6.78672e+09 6.76283e+09 7.10012e+09 6.72406e+09 6.75621e+09 6.92596e+09 6.80166e+09 6.82551e+09 6.84302e+09 
7.11137e+09 6.71369e+09 7.05655e+09 6.88296e+09 6.78127e+09 7.0603e+09 6.88083e+09 7.86452e+09 7.32324e+09 
7.3318e+09 7.03775e+09 6.8207e+09 6.84339e+09 7.19452e+09 7.86369e+09 6.91105e+09 7.00035e+09 7.21285e+09 
6.83917e+09 7.03424e+09 6.71891e+09 6.90249e+09 6.8952e+09 6.88742e+09 6.70038e+09 6.93024e+09 6.90659e+09 
6.99996e+09 7.04724e+09 6.91603e+09 6.75232e+09 6.87963e+09 6.8452e+09 6.65211e+09 6.58409e+09 6.76491e+09 
6.77039e+09 6.68534e+09 6.60537e+09 6.94512e+09 6.90598e+09 7.39358e+09 6.9868e+09 7.04485e+09 6.78222e+09 
6.99622e+09 7.2075e+09 6.79898e+09 6.85389e+09 6.99838e+09 7.06344e+09 6.96255e+09 6.90574e+09 6.77113e+09 
6.82689e+09 6.92661e+09 6.80741e+09 7.31064e+09 7.23132e+09 7.00397e+09 6.92225e+09 6.83919e+09 7.12238e+09 
6.61059e+09 6.65646e+09 6.66001e+09 7.18299e+09 6.78656e+09 6.8849e+09 6.67241e+09 6.85203e+09 6.80259e+09 
6.83889e+09 6.98186e+09 7.35811e+09 7.25075e+09 6.87202e+09 6.78574e+09 6.88007e+09 6.86828e+09 7.27873e+09 
7.11841e+09 7.01462e+09 7.0539e+09 6.99377e+09 6.93791e+09 6.82299e+09 6.85174e+09 6.73676e+09 6.81908e+09 
6.7436e+09 6.93935e+09 6.70895e+09 6.78104e+09 7.24794e+09 7.21925e+09 6.79002e+09 7.02078e+09 6.76893e+09 
6.67576e+09 6.72163e+09 6.84825e+09 7.25675e+09 7.01042e+09 7.0284e+09 7.02149e+09 6.90647e+09 7.05851e+09 
6.97266e+09 6.92041e+09 6.89899e+09 6.87827e+09 7.28105e+09 7.19271e+09 6.79371e+09 6.7949e+09 7.39377e+09 
6.82655e+09 6.82826e+09 6.87615e+09 6.93527e+09 6.6626e+09 6.67988e+09 6.58595e+09 7.45245e+09 6.76436e+09 
7.11582e+09 6.91306e+09 6.83827e+09 7.00063e+09 6.82756e+09 6.59368e+09 6.85557e+09 6.89358e+09 7.0464e+09 
7.24711e+09 7.02812e+09 7.10834e+09 7.0744e+09 7.35868e+09 6.68054e+09 6.75798e+09 6.87819e+09 6.78368e+09 
7.30076e+09 6.95698e+09 7.05525e+09 6.93875e+09 6.97711e+09 6.78635e+09 6.79822e+09 7.0551e+09 6.79805e+09 
6.81272e+09 7.03175e+09 6.79466e+09 6.93907e+09 6.89912e+09 6.64332e+09 7.13316e+09 6.66678e+09 6.70538e+09 
6.74533e+09 6.90817e+09 6.79217e+09 6.67337e+09 6.79344e+09 7.24491e+09 6.86482e+09 6.93255e+09 7.04738e+09 
6.88305e+09 6.8675e+09 6.8587e+09 6.86452e+09 7.0179e+09 7.14525e+09 6.88654e+09 6.99149e+09 6.66638e+09 
7.08889e+09 6.95266e+09 6.93723e+09 6.94441e+09 6.87797e+09 7.04284e+09 6.78045e+09 6.94536e+09 6.83173e+09 
6.8384e+09 6.75724e+09 6.71467e+09 7.11041e+09 6.69031e+09 6.83181e+09 6.72213e+09 6.79363e+09 6.83345e+09 
6.51791e+09 7.13689e+09 7.12623e+09 7.13554e+09 7.19574e+09 7.36077e+09 7.03361e+09 6.93952e+09 6.84012e+09 
6.8616e+09 6.97351e+09 6.85627e+09 6.90217e+09 6.84797e+09 6.92058e+09 6.9249e+09 6.90856e+09 6.98272e+09 
6.81787e+09 6.76326e+09 6.75668e+09 6.81834e+09 6.70982e+09 6.55972e+09 6.7402e+09 7.30491e+09 6.69465e+09 
6.96592e+09 6.75715e+09 7.18261e+09 7.00297e+09 6.75565e+09 7.04368e+09 7.10593e+09 7.41713e+09 7.06336e+09 
7.07911e+09 7.3289e+09 6.98929e+09 7.13292e+09 6.79745e+09 6.94228e+09 6.75375e+09 7.1698e+09 7.06231e+09 
6.72373e+09 6.6952e+09 7.03933e+09 7.19406e+09 7.07794e+09 7.4716e+09 6.6231e+09 6.75969e+09 6.80865e+09 
7.04712e+09 6.67613e+09 6.66758e+09 6.88264e+09 7.2754e+09 7.0278e+09 7.15951e+09 6.71226e+09 6.92194e+09 
6.74578e+09 6.78448e+09 6.95479e+09 7.18693e+09 6.98573e+09 6.72907e+09 7.0593e+09 7.38201e+09 6.83332e+09 
7.12452e+09 7.0564e+09 6.86122e+09 7.39026e+09 7.36813e+09 6.96151e+09 6.84441e+09 7.00716e+09 6.96013e+09 
6.78494e+09 6.78199e+09 6.77421e+09 6.77723e+09 6.6989e+09 6.67897e+09 6.95885e+09 6.59898e+09 6.82276e+09 
6.73197e+09 6.90586e+09 6.7472e+09 6.8816e+09 6.6186e+09 6.83866e+09 6.65064e+09 7.26425e+09 7.27062e+09 
6.99215e+09 7.53878e+09 7.14159e+09 7.51713e+09 7.05305e+09 7.2185e+09 6.72983e+09 6.8961e+09 7.09006e+09 
6.98048e+09 6.82471e+09 6.80276e+09 6.63226e+09 6.74649e+09 6.93631e+09 6.97774e+09 7.12029e+09 6.68951e+09 
6.84783e+09 6.66374e+09 6.68261e+09 6.63065e+09 6.85635e+09 6.75018e+09 6.65739e+09 6.83743e+09 6.84597e+09 
6.76037e+09 6.86313e+09 6.92888e+09 6.85188e+09 6.89659e+09 7.15328e+09 7.23265e+09 7.03973e+09 7.09202e+09 
7.01138e+09 6.58421e+09 6.74535e+09 7.22802e+09 7.15551e+09 6.79021e+09 6.77477e+09 6.79322e+09 6.9747e+09 
6.789e+09 6.83989e+09 6.79055e+09 6.94453e+09 7.03435e+09 7.01563e+09 6.51801e+09 6.83438e+09 6.82566e+09 
6.7267e+09 6.61117e+09 7.00296e+09 6.74874e+09 6.94196e+09 6.84964e+09 6.85848e+09 6.66958e+09 6.8957e+09 
7.25172e+09 6.95399e+09 6.8012e+09 6.93399e+09 7.00507e+09 7.05224e+09 6.74212e+09 6.92678e+09 7.08259e+09 
7.01476e+09 6.8305e+09 6.55008e+09 6.76897e+09 7.15641e+09 7.07547e+09 6.9809e+09 6.89467e+09 6.81256e+09 
6.72568e+09 6.95919e+09 7.22768e+09 6.71552e+09 6.81294e+09 6.6927e+09 7.1248e+09 6.86355e+09 7.38363e+09 
6.83796e+09 6.65929e+09 6.5038e+09 6.65208e+09 7.34972e+09 7.03558e+09 6.9434e+09 7.07186e+09 6.70558e+09 
6.91634e+09 7.16661e+09 6.89997e+09 6.91427e+09 6.98763e+09 7.05268e+09 6.98048e+09 6.8331e+09 7.06566e+09 
7.03472e+09 6.87111e+09 6.77023e+09 7.11714e+09 6.76917e+09 6.85258e+09 6.70045e+09 6.99058e+09 6.82327e+09 
7.00408e+09 6.95408e+09 6.84186e+09 6.63816e+09 6.96572e+09 7.00883e+09 6.56671e+09 6.85818e+09 6.62885e+09 
7.04406e+09 6.94875e+09 7.13939e+09 7.08857e+09 7.39131e+09 7.36372e+09 7.22613e+09 7.04834e+09 6.77621e+09 
6.81869e+09 6.79603e+09 7.06561e+09 7.08879e+09 6.96177e+09 6.70366e+09 7.17138e+09 6.82244e+09 6.82828e+09 
6.92239e+09 6.72011e+09 6.8779e+09 7.01181e+09 7.19667e+09 6.7273e+09 6.86924e+09 6.69474e+09 6.63772e+09 
6.75986e+09 6.92557e+09 6.61032e+09 6.56747e+09 6.44947e+09 7.06247e+09 6.97104e+09 6.9736e+09 7.07587e+09 
6.83337e+09 7.1315e+09 7.04845e+09 7.07497e+09 6.61882e+09 7.10823e+09 6.82313e+09 6.7804e+09 6.81175e+09 
7.15572e+09 7.21239e+09 6.94088e+09 6.80064e+09 6.6989e+09 7.23114e+09 6.83833e+09 7.06279e+09 6.74564e+09 
6.7055e+09 6.57594e+09 6.63751e+09 6.95467e+09 6.94383e+09 7.0293e+09 6.90482e+09 6.94699e+09 7.04571e+09 
7.30178e+09 7.10848e+09 7.20297e+09 6.99853e+09 7.24156e+09 7.23712e+09 7.04545e+09 7.14753e+09 6.69964e+09 
6.75232e+09 6.91969e+09 6.99226e+09 6.90497e+09 6.74287e+09 6.97161e+09 6.84537e+09 6.70118e+09 6.93675e+09 
6.94425e+09 6.9673e+09 6.80531e+09 6.80039e+09 7.09077e+09 7.05964e+09 6.77916e+09 6.73236e+09 6.738e+09 
6.8387e+09 7.03078e+09 6.88413e+09 6.86587e+09 7.27301e+09 6.98608e+09 6.77849e+09 7.03498e+09 7.00246e+09 
7.22534e+09 7.27675e+09 6.87985e+09 7.05363e+09 7.12186e+09 7.22511e+09 6.90509e+09 6.81396e+09 6.96142e+09 
6.9133e+09 6.60104e+09 6.72026e+09 7.04908e+09 6.73757e+09 6.93746e+09 6.96102e+09 7.06259e+09 7.0422e+09 
6.6218e+09 6.56951e+09 7.1086e+09 6.90839e+09 6.80781e+09 6.7194e+09 6.77524e+09 7.15459e+09 6.82923e+09 
6.99382e+09 7.19149e+09 6.74511e+09 7.05713e+09 7.16359e+09 7.15091e+09 7.13839e+09 7.17622e+09 7.03516e+09 
6.94254e+09 6.85563e+09 6.64785e+09 7.08015e+09 7.42338e+09 6.8763e+09 7.15624e+09 6.56156e+09 6.9932e+09 
6.9281e+09 6.8736e+09 7.12329e+09 7.12412e+09 6.81534e+09 6.72064e+09 6.66136e+09 6.68644e+09 7.37975e+09 
6.91967e+09 7.49489e+09 6.85831e+09 6.78542e+09 6.83773e+09 6.91882e+09 7.12053e+09 6.7927e+09 6.99057e+09 
6.99235e+09 6.94846e+09 6.78904e+09 6.92779e+09 7.11037e+09 7.01837e+09 6.77442e+09 6.90279e+09 7.14316e+09 
6.78183e+09 7.0603e+09 6.75238e+09 6.71879e+09 6.71129e+09 6.74924e+09 6.76084e+09 6.81321e+09 6.83229e+09 
6.92284e+09 6.6475e+09 6.92059e+09 6.70593e+09 6.55478e+09 6.9287e+09 6.67139e+09 6.74511e+09 6.67465e+09 
6.9198e+09 7.37716e+09 7.57521e+09 7.02213e+09 7.29836e+09 7.08718e+09 7.28805e+09 6.90488e+09 6.94181e+09 
6.82856e+09 7.00308e+09 6.93355e+09 6.90395e+09 7.02621e+09 6.63628e+09 6.80994e+09 6.93325e+09 6.74344e+09 
6.91663e+09 6.95987e+09 6.62978e+09 7.02418e+09 6.71618e+09 6.57459e+09 6.55976e+09 6.8106e+09 6.50891e+09 
6.565e+09 6.6476e+09 6.71186e+09 7.18265e+09 6.61566e+09 6.87195e+09 6.96607e+09 6.81311e+09 7.06551e+09 
7.40685e+09 7.44289e+09 7.23863e+09 7.28455e+09 6.74074e+09 6.9614e+09 6.71334e+09 6.62439e+09 7.19878e+09 
7.10303e+09 6.94026e+09 7.00795e+09 6.66277e+09 6.60308e+09 6.9451e+09 6.98472e+09 6.79264e+09 6.97211e+09 
6.79682e+09 7.00538e+09 6.70478e+09 6.74685e+09 6.76961e+09 6.85569e+09 6.79028e+09 6.68079e+09 6.97682e+09 
6.88959e+09 6.84774e+09 7.13524e+09 6.82551e+09 6.87156e+09 7.03854e+09 6.93433e+09 7.0763e+09 7.01357e+09 
6.94934e+09 6.82185e+09 6.81498e+09 7.29112e+09 6.93544e+09 6.98734e+09 7.12119e+09 7.19381e+09 6.94017e+09 
7.1057e+09 7.01731e+09 6.77568e+09 7.04449e+09 6.93802e+09 6.82167e+09 6.76208e+09 6.86643e+09 6.75306e+09 
7.10986e+09 6.96417e+09 6.74913e+09 6.71703e+09 6.98684e+09 6.82741e+09 6.9064e+09 6.86348e+09 7.00807e+09 
7.02824e+09 7.24489e+09 7.06217e+09 6.91892e+09 7.08912e+09 7.00374e+09 6.78665e+09 6.81997e+09 7.04849e+09 
6.87569e+09 6.99318e+09 6.72749e+09 7.19953e+09 6.94158e+09 6.8025e+09 6.5829e+09 6.82305e+09 6.73321e+09 
6.85204e+09 6.82222e+09 6.87626e+09 6.72432e+09 6.81597e+09 6.7795e+09 6.82441e+09 6.79843e+09 6.75769e+09 
6.89466e+09 7.08895e+09 6.9311e+09 6.66039e+09 6.91891e+09 6.90044e+09 7.22261e+09 7.03519e+09 7.22999e+09 
6.91014e+09 6.82988e+09 6.89081e+09 6.70236e+09 6.67222e+09 6.7674e+09 6.9662e+09 6.7768e+09 7.01391e+09 
6.93994e+09 6.88728e+09 7.02107e+09 6.76076e+09 6.91302e+09 6.7768e+09 6.77945e+09 6.95404e+09 6.79348e+09 
6.87925e+09 7.12783e+09 7.05835e+09 6.95e+09 6.5525e+09 7.09723e+09 6.74986e+09 6.78159e+09 6.76037e+09 
6.75647e+09 7.07843e+09 7.53528e+09 7.2762e+09 7.51163e+09 6.88682e+09 7.00165e+09 6.99162e+09 6.96576e+09 
6.83794e+09 7.06364e+09 6.85186e+09 6.95009e+09 6.87157e+09 6.87667e+09 6.74179e+09 6.75688e+09 7.0787e+09 
6.97501e+09 7.12258e+09 6.85801e+09 6.80136e+09 6.71905e+09 6.7371e+09 6.90613e+09 6.7523e+09 6.77774e+09 
6.731e+09 6.96738e+09 6.8019e+09 6.72803e+09 6.69129e+09 6.68425e+09 7.02138e+09 7.62343e+09 7.35584e+09 
7.71369e+09 6.99022e+09 7.04966e+09 6.81193e+09 6.96417e+09 7.24035e+09 7.46397e+09 6.97722e+09 7.07424e+09 