# vtk DataFile Version 3.0
vtk output
ASCII
DATASET RECTILINEAR_GRID
FIELD FieldData 4
MeshName 1 1 string
mesh

CYCLE 1 1 int
10 
TIME 1 1 double
10 
avtOriginalBounds 1 6 double
0 1.95312 1.58691 1.83105 0 1.95312 
DIMENSIONS 33 5 33
X_COORDINATES 33 double
0 0.0610352 0.12207 0.183105 0.244141 0.305176 0.366211 0.427246 0.488281 
0.549316 0.610352 0.671387 0.732422 0.793457 0.854492 0.915527 0.976562 1.0376 
1.09863 1.15967 1.2207 1.28174 1.34277 1.40381 1.46484 1.52588 1.58691 
1.64795 1.70898 1.77002 1.83105 1.89209 1.95312 
Y_COORDINATES 5 double
1.58691 1.64795 1.70898 1.77002 1.83105 
Z_COORDINATES 33 double
0 0.0610352 0.12207 0.183105 0.244141 0.305176 0.366211 0.427246 0.488281 
0.549316 0.610352 0.671387 0.732422 0.793457 0.854492 0.915527 0.976562 1.0376 
1.09863 1.15967 1.2207 1.28174 1.34277 1.40381 1.46484 1.52588 1.58691 
1.64795 1.70898 1.77002 1.83105 1.89209 1.95312 
CELL_DATA 4096
SCALARS simdata double
LOOKUP_TABLE default
6.98974e+09 6.85604e+09 6.67e+09 6.75462e+09 6.71693e+09 6.99326e+09 7.01199e+09 6.79305e+09 6.84586e+09 
6.99009e+09 7.37395e+09 7.12671e+09 7.00606e+09 7.01653e+09 6.87995e+09 6.79763e+09 6.57668e+09 6.76842e+09 
6.63869e+09 6.73692e+09 6.73558e+09 6.66114e+09 6.67115e+09 6.61197e+09 6.75322e+09 6.80997e+09 6.9594e+09 
6.75364e+09 6.8962e+09 7.09988e+09 6.72584e+09 6.61517e+09 7.06881e+09 6.86721e+09 6.98952e+09 6.62739e+09 
6.50837e+09 6.80942e+09 7.04134e+09 6.79524e+09 7.25969e+09 7.25586e+09 6.96645e+09 6.98336e+09 6.94996e+09 
7.01085e+09 6.88446e+09 6.80801e+09 6.7699e+09 6.65368e+09 6.57616e+09 7.11033e+09 6.67603e+09 6.77671e+09 
6.73523e+09 6.93765e+09 6.55935e+09 6.79164e+09 6.80855e+09 6.79663e+09 6.72299e+09 6.9112e+09 6.78198e+09 
6.72343e+09 6.56779e+09 6.68343e+09 7.09606e+09 7.22367e+09 6.6597e+09 6.76533e+09 6.66382e+09 7.3078e+09 
6.95121e+09 6.99909e+09 6.97261e+09 6.9343e+09 7.20128e+09 6.62712e+09 6.98945e+09 6.75972e+09 6.96081e+09 
6.71598e+09 6.82575e+09 6.5981e+09 6.60119e+09 6.53525e+09 6.55549e+09 6.6906e+09 6.75851e+09 6.77064e+09 
6.84574e+09 7.04868e+09 7.02965e+09 6.76141e+09 6.73306e+09 6.81495e+09 7.22767e+09 7.22614e+09 6.9791e+09 
6.83389e+09 6.8399e+09 6.67898e+09 6.79096e+09 6.88194e+09 6.6472e+09 6.80197e+09 7.07947e+09 6.99336e+09 
6.63636e+09 6.53202e+09 6.86904e+09 6.85603e+09 6.56078e+09 6.75659e+09 6.74343e+09 6.59569e+09 6.91079e+09 
6.75812e+09 6.90129e+09 6.6961e+09 6.61896e+09 6.80221e+09 6.90327e+09 6.82631e+09 7.01093e+09 6.91263e+09 
6.82196e+09 6.83135e+09 6.86291e+09 6.87301e+09 6.95816e+09 6.77364e+09 6.82912e+09 6.83245e+09 7.10663e+09 
6.68862e+09 6.69083e+09 6.94961e+09 6.69513e+09 6.97692e+09 6.9927e+09 6.8304e+09 6.62022e+09 6.82111e+09 
6.85055e+09 6.76827e+09 6.72044e+09 6.92793e+09 6.85891e+09 6.94639e+09 6.65312e+09 6.67845e+09 6.7835e+09 
6.79536e+09 6.81404e+09 6.8827e+09 6.84832e+09 6.8374e+09 6.69126e+09 6.93483e+09 6.80763e+09 6.99354e+09 
6.85266e+09 6.71811e+09 6.72058e+09 6.73301e+09 6.96542e+09 6.93918e+09 6.86856e+09 7.02047e+09 6.91416e+09 
6.80536e+09 6.86234e+09 6.85779e+09 6.71376e+09 6.73526e+09 7.12104e+09 6.88725e+09 6.87046e+09 6.95128e+09 
6.76413e+09 6.7164e+09 6.63672e+09 6.68094e+09 6.78665e+09 6.66003e+09 6.99591e+09 6.87618e+09 6.79029e+09 
6.70703e+09 6.86971e+09 6.80451e+09 6.82679e+09 6.88844e+09 7.07102e+09 7.11958e+09 6.98314e+09 6.88981e+09 
6.81482e+09 6.94168e+09 6.97946e+09 6.91283e+09 7.05266e+09 6.99063e+09 7.44734e+09 6.81074e+09 6.87078e+09 
6.6939e+09 6.927e+09 7.10946e+09 7.04069e+09 6.94677e+09 6.72404e+09 6.84377e+09 6.92488e+09 7.06817e+09 
6.53508e+09 6.81911e+09 7.00394e+09 6.95051e+09 7.05645e+09 6.58445e+09 6.76801e+09 6.60279e+09 6.67464e+09 
6.93787e+09 6.98448e+09 7.01971e+09 7.07909e+09 7.15818e+09 7.01853e+09 7.09971e+09 7.0555e+09 7.086e+09 
6.88146e+09 6.89736e+09 6.87993e+09 6.78821e+09 7.22814e+09 6.74016e+09 6.93178e+09 6.67745e+09 6.74344e+09 
6.62371e+09 6.94015e+09 6.77327e+09 7.00227e+09 6.73812e+09 6.58851e+09 6.90721e+09 6.72949e+09 7.02745e+09 
7.02291e+09 6.77167e+09 6.80637e+09 6.83919e+09 7.15045e+09 6.93597e+09 6.88294e+09 6.66664e+09 6.69089e+09 
6.5343e+09 6.85633e+09 6.99491e+09 7.03217e+09 6.89919e+09 6.72261e+09 6.70761e+09 6.82831e+09 7.04655e+09 
6.90489e+09 6.83855e+09 6.70397e+09 7.01114e+09 6.85359e+09 6.61749e+09 6.67693e+09 6.6294e+09 7.05645e+09 
7.15627e+09 6.77167e+09 6.83977e+09 6.87222e+09 6.97992e+09 7.1223e+09 7.14116e+09 7.10768e+09 6.98727e+09 
6.82444e+09 6.82557e+09 7.12935e+09 6.95454e+09 6.86015e+09 7.13338e+09 6.724e+09 6.90372e+09 7.16335e+09 
6.80799e+09 6.49911e+09 6.42901e+09 6.53012e+09 6.76612e+09 6.534e+09 6.67404e+09 6.69005e+09 6.88247e+09 
7.22297e+09 6.91678e+09 6.67291e+09 6.84009e+09 6.71098e+09 6.71209e+09 6.68865e+09 6.56037e+09 6.89832e+09 
6.71162e+09 6.76631e+09 7.27356e+09 7.25445e+09 6.76963e+09 6.81758e+09 6.71608e+09 6.95923e+09 6.83584e+09 
6.72115e+09 6.8788e+09 7.21615e+09 6.75149e+09 6.70323e+09 7.03939e+09 7.04709e+09 6.51787e+09 6.73415e+09 
7.00289e+09 6.86751e+09 6.77086e+09 6.90923e+09 7.1969e+09 7.20854e+09 6.75654e+09 6.66726e+09 6.74475e+09 
6.84852e+09 6.83314e+09 6.64499e+09 6.72052e+09 7.71194e+09 7.42795e+09 6.78741e+09 6.88059e+09 6.80349e+09 
6.7632e+09 6.65236e+09 6.97478e+09 6.90526e+09 6.82537e+09 6.77763e+09 6.9729e+09 6.88849e+09 6.7507e+09 
6.95014e+09 7.01779e+09 7.07593e+09 6.79295e+09 6.69696e+09 6.82902e+09 6.98031e+09 7.07002e+09 6.76991e+09 
6.7803e+09 7.13603e+09 6.69961e+09 6.65527e+09 6.77571e+09 6.5504e+09 6.65854e+09 6.55079e+09 6.64522e+09 
6.69797e+09 6.84759e+09 7.08022e+09 6.68108e+09 6.87568e+09 6.98281e+09 6.97622e+09 6.79427e+09 6.67934e+09 
6.78579e+09 6.85969e+09 6.60184e+09 6.6135e+09 6.90277e+09 6.79228e+09 6.9081e+09 6.71933e+09 6.45197e+09 
6.67963e+09 7.00272e+09 6.85376e+09 6.77196e+09 6.7593e+09 6.60758e+09 6.89378e+09 7.15075e+09 6.86023e+09 
7.08988e+09 7.0899e+09 6.62288e+09 6.91095e+09 7.02403e+09 6.83406e+09 6.80158e+09 7.26856e+09 7.53847e+09 
7.04832e+09 6.81245e+09 7.04499e+09 6.76494e+09 6.70982e+09 6.98651e+09 6.87962e+09 6.82736e+09 6.68067e+09 
6.92538e+09 7.05753e+09 6.80082e+09 6.7791e+09 6.54924e+09 6.71288e+09 6.57039e+09 6.96845e+09 6.8946e+09 
6.84529e+09 6.81701e+09 6.98008e+09 6.82928e+09 6.9378e+09 6.82986e+09 6.72486e+09 6.60419e+09 6.71493e+09 
6.89756e+09 7.13618e+09 7.57291e+09 7.35291e+09 7.43116e+09 6.86422e+09 6.96588e+09 6.92803e+09 6.66159e+09 
6.68605e+09 6.83938e+09 6.72677e+09 6.77911e+09 6.96312e+09 6.86082e+09 6.84121e+09 6.76264e+09 6.70907e+09 
6.63687e+09 6.99888e+09 6.77049e+09 6.84609e+09 6.61416e+09 6.86641e+09 7.17209e+09 6.86387e+09 7.00851e+09 
6.92583e+09 6.86993e+09 6.74003e+09 6.71749e+09 6.88389e+09 6.97203e+09 6.92017e+09 6.86954e+09 7.02004e+09 
7.01193e+09 6.85068e+09 7.0161e+09 6.85932e+09 6.92076e+09 7.14188e+09 6.78319e+09 6.67874e+09 6.88064e+09 
6.9811e+09 6.9949e+09 6.76146e+09 6.72346e+09 6.64781e+09 6.60112e+09 6.86714e+09 6.88359e+09 6.78761e+09 
6.81287e+09 6.83648e+09 7.00454e+09 6.83552e+09 6.83194e+09 6.90039e+09 7.38099e+09 7.01166e+09 6.59844e+09 
6.77999e+09 6.74508e+09 7.11603e+09 7.30606e+09 7.47226e+09 6.86521e+09 7.00128e+09 6.93343e+09 7.02909e+09 
6.86089e+09 7.03124e+09 7.09344e+09 7.08925e+09 6.66364e+09 6.86937e+09 7.1568e+09 6.94496e+09 7.0973e+09 
6.98992e+09 6.68802e+09 6.76297e+09 6.80319e+09 6.67198e+09 6.73258e+09 6.87193e+09 6.7247e+09 6.88447e+09 
7.06853e+09 6.92469e+09 7.18745e+09 7.07376e+09 6.95234e+09 6.73666e+09 6.68642e+09 6.63115e+09 6.99012e+09 
7.26173e+09 7.92507e+09 7.57431e+09 6.90667e+09 6.93666e+09 6.88955e+09 7.11426e+09 7.04472e+09 7.01243e+09 
6.76499e+09 6.70079e+09 6.98524e+09 6.74115e+09 6.56343e+09 6.63198e+09 6.73486e+09 6.7669e+09 7.11595e+09 
6.96142e+09 6.85349e+09 6.69018e+09 6.74928e+09 6.74401e+09 6.7462e+09 6.89518e+09 6.99623e+09 6.83171e+09 
6.70642e+09 6.71115e+09 6.81026e+09 6.99746e+09 7.13369e+09 7.22829e+09 7.14646e+09 6.61685e+09 6.67931e+09 
6.82338e+09 6.70642e+09 6.81183e+09 6.72851e+09 6.75663e+09 6.61378e+09 6.82491e+09 6.77674e+09 7.05554e+09 
6.55023e+09 6.78207e+09 6.5457e+09 6.6484e+09 6.75168e+09 6.74081e+09 6.96591e+09 6.76206e+09 6.71488e+09 
6.66039e+09 7.07177e+09 6.89411e+09 6.69146e+09 6.73944e+09 6.99473e+09 6.9107e+09 6.76686e+09 6.88723e+09 
7.11157e+09 7.06147e+09 7.03842e+09 6.80033e+09 6.81063e+09 7.13986e+09 7.03371e+09 6.79023e+09 6.62323e+09 
6.66343e+09 6.7533e+09 6.77669e+09 7.00842e+09 7.34681e+09 6.66799e+09 7.08434e+09 6.64926e+09 6.98758e+09 
6.577e+09 6.93618e+09 6.65269e+09 6.57139e+09 7.04216e+09 6.67912e+09 6.93874e+09 6.69683e+09 6.97202e+09 
6.81091e+09 6.66113e+09 6.52113e+09 6.93023e+09 6.9297e+09 7.32782e+09 6.89191e+09 7.00361e+09 7.00692e+09 
7.29523e+09 6.90186e+09 7.34503e+09 6.79353e+09 7.06782e+09 6.55594e+09 6.59943e+09 6.80258e+09 7.05746e+09 
6.9197e+09 6.90089e+09 6.54268e+09 6.65691e+09 6.75073e+09 6.86e+09 6.85438e+09 6.82777e+09 7.02352e+09 
6.75864e+09 7.23181e+09 6.76766e+09 6.87377e+09 7.02841e+09 6.93991e+09 7.11709e+09 6.99561e+09 6.73149e+09 
6.89906e+09 6.96468e+09 6.82361e+09 7.16129e+09 6.88897e+09 6.89793e+09 6.69231e+09 6.88569e+09 6.88888e+09 
6.86467e+09 6.94374e+09 6.72888e+09 6.95595e+09 6.75943e+09 6.87129e+09 6.59125e+09 6.84242e+09 6.4715e+09 
6.6237e+09 6.59427e+09 6.59544e+09 7.17962e+09 7.07002e+09 6.86954e+09 6.78164e+09 6.67183e+09 7.62623e+09 
6.89791e+09 6.86351e+09 7.01687e+09 6.80584e+09 6.58808e+09 6.75655e+09 6.96422e+09 6.95113e+09 6.89049e+09 
6.93921e+09 6.73026e+09 6.74147e+09 7.24072e+09 6.75549e+09 6.83176e+09 6.63614e+09 6.58784e+09 6.7161e+09 
6.65602e+09 6.78241e+09 6.98086e+09 6.87988e+09 6.77409e+09 6.77822e+09 6.61238e+09 6.8495e+09 7.10888e+09 
6.68338e+09 6.72647e+09 6.68278e+09 6.70439e+09 6.72669e+09 6.84713e+09 6.71372e+09 6.85808e+09 6.82524e+09 
6.54256e+09 7.11289e+09 6.89986e+09 6.83056e+09 6.91833e+09 6.9489e+09 7.34239e+09 7.0172e+09 6.86975e+09 
6.73875e+09 6.57405e+09 6.60149e+09 6.64209e+09 6.50641e+09 6.58427e+09 6.87181e+09 7.39042e+09 6.93884e+09 
6.98611e+09 6.69881e+09 6.613e+09 6.59015e+09 6.6084e+09 6.74179e+09 6.73215e+09 6.76798e+09 6.69629e+09 
6.61739e+09 6.77412e+09 6.91482e+09 7.01248e+09 6.84775e+09 6.81174e+09 7.05362e+09 6.78852e+09 7.08736e+09 
6.94543e+09 6.93258e+09 7.53077e+09 6.89437e+09 6.77796e+09 6.87175e+09 6.86122e+09 6.84115e+09 6.89389e+09 
6.73652e+09 6.60105e+09 6.68203e+09 6.88844e+09 6.98625e+09 7.01122e+09 6.72081e+09 6.77635e+09 7.18311e+09 
7.22024e+09 6.98687e+09 6.83915e+09 7.02774e+09 6.98687e+09 6.93589e+09 6.80082e+09 6.73825e+09 6.65158e+09 
7.00387e+09 6.75244e+09 6.61518e+09 6.77299e+09 6.82956e+09 6.94164e+09 6.97216e+09 6.982e+09 6.82382e+09 
6.82975e+09 6.96809e+09 6.62123e+09 6.66031e+09 6.91411e+09 6.73825e+09 6.86556e+09 6.70594e+09 6.79637e+09 
6.61442e+09 6.98221e+09 6.74556e+09 6.78848e+09 6.78391e+09 7.09028e+09 6.94559e+09 6.7955e+09 6.78775e+09 
6.91647e+09 6.96907e+09 6.82614e+09 6.79472e+09 6.75563e+09 6.74496e+09 6.89063e+09 6.81578e+09 6.69931e+09 
7.1521e+09 6.80112e+09 6.81346e+09 6.85432e+09 6.84218e+09 6.83079e+09 6.80117e+09 6.74841e+09 6.79023e+09 
6.73222e+09 6.63161e+09 6.77913e+09 6.65379e+09 6.82271e+09 6.81432e+09 6.6377e+09 6.72105e+09 7.13941e+09 
7.09805e+09 7.06807e+09 6.77087e+09 6.58771e+09 6.72011e+09 6.78794e+09 6.79911e+09 6.92742e+09 6.83663e+09 
6.79886e+09 6.69611e+09 6.87054e+09 7.00398e+09 6.54349e+09 6.64636e+09 6.73503e+09 6.76642e+09 7.18135e+09 
6.64148e+09 6.60838e+09 6.84425e+09 6.83723e+09 6.84903e+09 6.97013e+09 6.60271e+09 6.63069e+09 6.95945e+09 
6.99367e+09 6.95582e+09 6.88068e+09 6.83846e+09 6.79678e+09 6.54234e+09 6.63962e+09 6.52188e+09 6.83638e+09 
6.59038e+09 6.63297e+09 6.72952e+09 7.09172e+09 6.93847e+09 6.96148e+09 6.911e+09 6.8198e+09 7.15126e+09 
6.77007e+09 6.7196e+09 6.6242e+09 7.35991e+09 7.10697e+09 6.60651e+09 6.58882e+09 7.0169e+09 6.89452e+09 
6.60291e+09 6.86271e+09 7.03434e+09 6.78438e+09 7.11684e+09 6.91365e+09 6.72098e+09 6.7601e+09 6.76557e+09 
6.71269e+09 6.68474e+09 6.70456e+09 6.96324e+09 7.16108e+09 7.23446e+09 6.96694e+09 7.13343e+09 7.02296e+09 
6.65403e+09 6.78654e+09 6.90629e+09 6.76519e+09 6.7181e+09 6.65275e+09 7.14957e+09 7.1592e+09 7.17728e+09 
6.86299e+09 6.85561e+09 6.81358e+09 6.56345e+09 6.75487e+09 6.74881e+09 7.03069e+09 6.6955e+09 6.66768e+09 
6.7867e+09 6.86217e+09 6.80826e+09 6.76342e+09 7.06846e+09 6.7578e+09 6.65442e+09 6.92116e+09 6.88367e+09 
6.73594e+09 6.88907e+09 6.94596e+09 6.60077e+09 6.80494e+09 6.94387e+09 7.11372e+09 6.82046e+09 6.62835e+09 
6.71267e+09 6.8721e+09 7.04589e+09 6.74717e+09 6.8934e+09 7.00689e+09 6.95359e+09 6.96303e+09 6.72508e+09 
6.68801e+09 6.79128e+09 7.13805e+09 6.80792e+09 7.00973e+09 6.62086e+09 6.87894e+09 6.90823e+09 6.70716e+09 
6.89136e+09 6.75684e+09 6.72926e+09 6.83795e+09 6.74223e+09 7.02574e+09 6.74316e+09 6.84316e+09 6.8642e+09 
6.83383e+09 7.03668e+09 7.05142e+09 7.10162e+09 6.85522e+09 7.08903e+09 7.14306e+09 6.95352e+09 6.7856e+09 
6.96288e+09 6.91507e+09 6.95066e+09 7.15843e+09 6.68757e+09 6.8365e+09 6.79541e+09 6.76593e+09 6.85367e+09 
6.7666e+09 6.80137e+09 7.01709e+09 6.86579e+09 6.78613e+09 6.74203e+09 6.84199e+09 6.90859e+09 6.76877e+09 
6.82088e+09 6.88912e+09 6.69444e+09 6.74256e+09 6.76558e+09 6.86161e+09 6.92443e+09 6.98518e+09 7.14913e+09 
6.95275e+09 6.78329e+09 6.67258e+09 6.86934e+09 6.91607e+09 7.00419e+09 7.29487e+09 6.99882e+09 6.88681e+09 
6.5759e+09 6.4911e+09 6.63492e+09 6.67095e+09 6.89608e+09 6.97104e+09 6.89314e+09 6.86105e+09 7.03135e+09 
6.77209e+09 6.76246e+09 6.83981e+09 7.334e+09 7.04933e+09 7.28793e+09 6.70144e+09 6.85784e+09 6.77631e+09 
6.73501e+09 6.69182e+09 6.71554e+09 6.6373e+09 6.62062e+09 6.70135e+09 7.05753e+09 6.64737e+09 7.0054e+09 
6.80202e+09 6.8771e+09 7.04955e+09 6.95295e+09 6.8966e+09 6.82454e+09 6.89666e+09 6.72678e+09 7.07081e+09 
6.96298e+09 6.69575e+09 6.92739e+09 6.67915e+09 6.72243e+09 6.57284e+09 6.74723e+09 6.85576e+09 7.15309e+09 
7.1066e+09 7.21443e+09 6.83072e+09 6.89681e+09 6.79284e+09 6.80147e+09 6.72677e+09 6.97996e+09 6.7013e+09 
6.69937e+09 6.74138e+09 6.83354e+09 6.87975e+09 6.70758e+09 6.78066e+09 6.6789e+09 6.77709e+09 6.98629e+09 
6.80855e+09 6.88084e+09 6.55213e+09 6.87761e+09 6.82057e+09 7.09981e+09 6.74464e+09 6.81126e+09 6.69873e+09 
6.96888e+09 7.03815e+09 6.92435e+09 6.93112e+09 6.94973e+09 6.94792e+09 7.38019e+09 7.11622e+09 7.02673e+09 
6.73206e+09 6.84956e+09 6.77849e+09 7.04736e+09 7.32906e+09 6.90262e+09 6.7082e+09 6.75597e+09 6.87706e+09 
6.80464e+09 6.80168e+09 7.26775e+09 6.91058e+09 6.80658e+09 6.66503e+09 7.11777e+09 6.67442e+09 6.90285e+09 
6.84193e+09 6.80747e+09 6.65132e+09 6.74033e+09 6.99313e+09 7.44214e+09 6.88152e+09 6.71158e+09 7.01958e+09 
6.77043e+09 7.05363e+09 6.7098e+09 6.73222e+09 6.79417e+09 6.5246e+09 6.6447e+09 6.93026e+09 6.71279e+09 
6.95631e+09 6.81519e+09 6.79594e+09 6.84472e+09 6.93258e+09 7.09447e+09 6.95898e+09 6.98822e+09 7.26155e+09 
6.99119e+09 7.16624e+09 6.67988e+09 6.77532e+09 6.9991e+09 6.81091e+09 6.8503e+09 7.34402e+09 7.39032e+09 
6.93917e+09 6.95891e+09 6.86084e+09 6.63132e+09 6.88657e+09 7.08257e+09 6.95448e+09 7.11244e+09 7.27492e+09 
6.81211e+09 7.04912e+09 7.08955e+09 6.86115e+09 7.06442e+09 6.85547e+09 6.70976e+09 6.68592e+09 6.8616e+09 
6.81809e+09 7.04008e+09 6.82878e+09 6.67677e+09 6.90202e+09 6.76376e+09 6.92579e+09 6.81574e+09 6.68869e+09 
7.11624e+09 6.88159e+09 6.79744e+09 6.69832e+09 7.53637e+09 6.63996e+09 6.71698e+09 7.00842e+09 6.85326e+09 
6.99787e+09 6.88125e+09 7.08838e+09 7.4897e+09 6.79964e+09 6.68045e+09 6.70515e+09 6.69052e+09 6.73648e+09 
6.96998e+09 6.67636e+09 7.07328e+09 6.90154e+09 7.04611e+09 6.82202e+09 6.80793e+09 6.67002e+09 6.80688e+09 
6.98074e+09 6.77784e+09 6.79872e+09 6.83317e+09 6.87045e+09 7.05334e+09 6.75443e+09 6.83575e+09 6.92728e+09 
7.01846e+09 6.83574e+09 6.70716e+09 7.544e+09 6.89979e+09 6.75637e+09 7.03043e+09 6.79136e+09 7.38931e+09 
6.85051e+09 6.73939e+09 6.67417e+09 6.71267e+09 7.10318e+09 7.15936e+09 6.91397e+09 6.96474e+09 6.68793e+09 
7.04552e+09 6.84049e+09 6.72593e+09 6.93564e+09 7.22944e+09 6.95731e+09 6.79534e+09 6.64013e+09 7.26657e+09 
6.88438e+09 6.93689e+09 6.84248e+09 6.72917e+09 7.08025e+09 6.8607e+09 6.81857e+09 7.15586e+09 6.94282e+09 
6.84153e+09 7.14499e+09 7.00791e+09 6.92852e+09 6.83046e+09 6.81907e+09 6.64569e+09 6.5096e+09 6.60716e+09 
6.78219e+09 6.91453e+09 7.42893e+09 7.05135e+09 6.8575e+09 6.91738e+09 6.59277e+09 6.69514e+09 6.60047e+09 
6.54866e+09 6.74309e+09 7.09256e+09 7.04735e+09 7.02974e+09 6.6277e+09 6.88366e+09 6.68853e+09 6.54215e+09 
7.22359e+09 6.8498e+09 6.70395e+09 6.87093e+09 6.74731e+09 6.95289e+09 6.87433e+09 6.82401e+09 6.92351e+09 
6.90113e+09 7.39924e+09 7.17073e+09 6.9417e+09 6.63163e+09 7.05793e+09 6.70512e+09 6.93487e+09 6.77477e+09 
7.01595e+09 7.22681e+09 7.06456e+09 6.83622e+09 6.67627e+09 6.84919e+09 6.67429e+09 7.03084e+09 7.40076e+09 
7.02901e+09 7.10647e+09 6.71986e+09 6.78403e+09 6.66226e+09 6.95561e+09 6.95565e+09 6.612e+09 7.05447e+09 
6.84544e+09 7.05684e+09 7.0874e+09 7.01622e+09 6.87547e+09 7.27452e+09 6.72506e+09 6.80167e+09 6.97588e+09 
6.67232e+09 6.75923e+09 6.87302e+09 6.89373e+09 7.09714e+09 7.13941e+09 6.54321e+09 6.83727e+09 6.91833e+09 
6.69107e+09 6.89917e+09 6.85673e+09 6.87583e+09 6.95351e+09 7.27108e+09 7.53507e+09 6.96442e+09 6.83538e+09 
6.86708e+09 6.89033e+09 7.07665e+09 6.81312e+09 6.74421e+09 6.91364e+09 6.7743e+09 6.88083e+09 6.79887e+09 
6.86523e+09 7.17429e+09 6.6116e+09 6.67503e+09 6.64786e+09 6.70608e+09 6.95325e+09 6.71109e+09 6.79259e+09 
6.74652e+09 6.77693e+09 6.80899e+09 6.78739e+09 6.70691e+09 6.90303e+09 6.91489e+09 6.91192e+09 6.84174e+09 
6.59782e+09 7.05721e+09 7.36945e+09 6.8127e+09 6.64109e+09 6.74701e+09 7.02203e+09 7.30555e+09 7.06182e+09 
6.81971e+09 6.57577e+09 6.49602e+09 6.92582e+09 6.84209e+09 6.81262e+09 6.69154e+09 6.60261e+09 6.59023e+09 
6.81055e+09 6.77781e+09 6.75243e+09 6.68508e+09 6.80967e+09 6.98761e+09 6.94578e+09 6.66284e+09 6.46028e+09 
6.76738e+09 7.00799e+09 6.98807e+09 6.84752e+09 6.8612e+09 6.95611e+09 7.14724e+09 6.83468e+09 6.92591e+09 
6.93314e+09 6.4881e+09 7.08844e+09 6.77452e+09 6.65562e+09 6.83212e+09 7.08762e+09 7.39125e+09 7.01391e+09 
7.34582e+09 7.39033e+09 6.82871e+09 7.0644e+09 7.17135e+09 6.7682e+09 6.76199e+09 6.94872e+09 7.17446e+09 
7.04161e+09 6.86371e+09 7.08558e+09 7.28789e+09 7.37809e+09 7.00722e+09 7.47571e+09 7.19581e+09 6.57803e+09 
6.84733e+09 6.99909e+09 7.0335e+09 6.84049e+09 6.6831e+09 7.00941e+09 6.72974e+09 6.89444e+09 6.75663e+09 
6.63904e+09 6.47574e+09 6.89772e+09 6.91782e+09 7.01953e+09 6.97238e+09 7.02114e+09 7.02977e+09 6.72695e+09 
6.75697e+09 6.73185e+09 6.91218e+09 6.82574e+09 6.73055e+09 6.76226e+09 6.80136e+09 7.03148e+09 6.90279e+09 
6.77451e+09 6.97975e+09 7.00389e+09 6.68443e+09 6.9167e+09 7.06202e+09 6.85374e+09 6.98294e+09 6.97075e+09 
6.81801e+09 6.77743e+09 6.5307e+09 7.08143e+09 6.85268e+09 6.78078e+09 6.73329e+09 7.00362e+09 7.28858e+09 
7.21757e+09 6.93623e+09 6.87225e+09 6.69538e+09 6.62791e+09 6.76366e+09 6.93815e+09 7.00375e+09 6.90491e+09 
6.73736e+09 6.91209e+09 6.99033e+09 6.68872e+09 6.66292e+09 6.58373e+09 6.49079e+09 7.11022e+09 7.55089e+09 
7.07453e+09 6.69597e+09 7.11741e+09 7.06911e+09 6.73282e+09 6.73172e+09 6.85733e+09 6.78378e+09 7.36576e+09 
6.90648e+09 6.63792e+09 6.89587e+09 7.00849e+09 7.12782e+09 7.01199e+09 7.06805e+09 6.87667e+09 6.67428e+09 
6.86975e+09 7.14438e+09 6.67594e+09 6.79048e+09 6.61587e+09 6.95281e+09 6.98827e+09 6.77184e+09 6.93721e+09 
6.66499e+09 6.607e+09 6.55652e+09 6.80365e+09 6.75834e+09 6.71917e+09 6.83181e+09 7.09139e+09 7.24012e+09 
7.0673e+09 7.08027e+09 7.08918e+09 6.73986e+09 6.84145e+09 6.89304e+09 6.76283e+09 6.9407e+09 7.12542e+09 
6.82893e+09 7.15096e+09 6.96774e+09 7.31569e+09 7.04608e+09 6.82002e+09 6.86771e+09 6.75906e+09 6.87492e+09 
6.82786e+09 7.23017e+09 7.23994e+09 7.07411e+09 7.0547e+09 7.16836e+09 7.07733e+09 7.56253e+09 7.13102e+09 
7.19393e+09 7.04532e+09 7.01598e+09 6.78754e+09 6.89748e+09 6.85485e+09 6.87879e+09 6.76554e+09 6.70235e+09 
6.5995e+09 6.76215e+09 6.75378e+09 6.84168e+09 7.22807e+09 7.08168e+09 7.15833e+09 6.74852e+09 6.88431e+09 
6.81748e+09 6.75969e+09 6.88616e+09 6.63821e+09 6.70722e+09 6.8808e+09 6.71998e+09 7.37348e+09 6.7697e+09 
6.98522e+09 7.03026e+09 6.77228e+09 6.7119e+09 6.94208e+09 7.07343e+09 6.87388e+09 7.10495e+09 7.22352e+09 
7.13171e+09 7.07293e+09 6.86544e+09 6.98367e+09 6.91374e+09 7.03845e+09 6.81632e+09 6.85051e+09 7.38531e+09 
6.96427e+09 6.83797e+09 6.97459e+09 6.7634e+09 6.92481e+09 6.9521e+09 6.77334e+09 6.89817e+09 6.81152e+09 
6.64765e+09 7.09322e+09 6.83042e+09 6.76406e+09 6.74302e+09 6.76776e+09 6.54818e+09 6.62862e+09 6.90916e+09 
7.29366e+09 7.37357e+09 7.02716e+09 7.05379e+09 7.0032e+09 7.02216e+09 6.93656e+09 6.95204e+09 6.87461e+09 
6.83443e+09 6.84151e+09 6.66721e+09 6.78416e+09 6.8697e+09 6.66085e+09 7.12273e+09 7.22093e+09 7.03034e+09 
7.10129e+09 6.94971e+09 7.37719e+09 6.7e+09 6.71392e+09 6.66389e+09 6.78152e+09 6.65068e+09 6.73848e+09 
7.26262e+09 6.68872e+09 6.55304e+09 6.71361e+09 6.74736e+09 6.90503e+09 7.09234e+09 7.09188e+09 6.54242e+09 
7.20473e+09 7.11944e+09 6.88455e+09 6.886e+09 6.87372e+09 6.87542e+09 6.90934e+09 7.2291e+09 7.01267e+09 
6.94261e+09 6.79889e+09 7.05366e+09 6.85331e+09 7.30204e+09 6.89991e+09 7.16359e+09 6.67958e+09 6.85903e+09 
6.99044e+09 7.15753e+09 6.94889e+09 7.08513e+09 7.2039e+09 7.20716e+09 6.93735e+09 6.89066e+09 7.18027e+09 
7.19874e+09 7.01795e+09 6.58184e+09 6.88354e+09 6.62835e+09 6.70908e+09 7.03247e+09 7.15172e+09 6.9612e+09 
6.81407e+09 6.74447e+09 6.64125e+09 6.81207e+09 7.03735e+09 6.69986e+09 6.85042e+09 6.82604e+09 7.04427e+09 
7.14822e+09 6.93166e+09 6.95232e+09 6.78086e+09 6.89751e+09 6.87222e+09 6.89025e+09 6.7946e+09 7.17057e+09 
6.76409e+09 6.80913e+09 7.09758e+09 7.18853e+09 6.81021e+09 7.00614e+09 6.74919e+09 6.75482e+09 6.94143e+09 
6.70977e+09 7.17343e+09 6.94765e+09 7.04965e+09 6.74264e+09 6.95929e+09 7.08635e+09 6.83881e+09 7.29404e+09 
7.10897e+09 6.7638e+09 6.90825e+09 6.90851e+09 7.36449e+09 7.1279e+09 6.84143e+09 7.1526e+09 6.68099e+09 
7.06323e+09 6.78948e+09 7.00898e+09 6.88736e+09 6.83137e+09 7.22462e+09 7.17589e+09 7.08157e+09 7.02633e+09 
6.71759e+09 6.86945e+09 6.89017e+09 6.82715e+09 6.95762e+09 6.89479e+09 7.18686e+09 7.005e+09 7.10153e+09 
7.29564e+09 6.79849e+09 6.9502e+09 6.87902e+09 6.78e+09 7.31724e+09 6.72133e+09 6.72327e+09 7.10076e+09 
6.97793e+09 6.86385e+09 6.74536e+09 6.91949e+09 6.7415e+09 7.05147e+09 7.01287e+09 6.80635e+09 6.8523e+09 
6.79024e+09 7.4039e+09 7.3125e+09 6.97279e+09 6.81366e+09 6.71348e+09 6.70672e+09 6.8205e+09 6.82042e+09 
6.77565e+09 6.78828e+09 6.86065e+09 6.74369e+09 6.92185e+09 6.83483e+09 6.8248e+09 6.7002e+09 6.84297e+09 
6.67037e+09 7.00971e+09 7.04359e+09 6.72433e+09 6.67919e+09 6.8337e+09 6.99446e+09 6.82668e+09 6.98802e+09 
7.18613e+09 6.77962e+09 6.86246e+09 7.09238e+09 7.13728e+09 6.99232e+09 6.91461e+09 6.93453e+09 7.05889e+09 
7.101e+09 7.19726e+09 6.94914e+09 6.89714e+09 6.80419e+09 6.66288e+09 6.90795e+09 6.72178e+09 6.87427e+09 
6.7982e+09 6.89261e+09 6.93484e+09 6.61195e+09 6.88541e+09 7.00638e+09 6.61076e+09 6.84949e+09 6.75007e+09 
6.48943e+09 7.20491e+09 6.99851e+09 6.62907e+09 6.84893e+09 6.88638e+09 7.04702e+09 7.00202e+09 6.89937e+09 
6.93732e+09 6.81741e+09 6.85299e+09 6.73421e+09 7.46936e+09 7.22311e+09 7.09226e+09 6.87519e+09 6.63884e+09 
6.629e+09 6.84074e+09 6.66084e+09 6.92783e+09 6.89914e+09 7.36542e+09 6.63666e+09 6.74272e+09 6.92055e+09 
6.74153e+09 7.23752e+09 7.20573e+09 6.62251e+09 6.66809e+09 6.86949e+09 7.23187e+09 6.83361e+09 6.99735e+09 
6.85882e+09 6.96949e+09 6.8318e+09 6.9471e+09 6.96252e+09 6.9669e+09 6.95423e+09 6.56404e+09 6.69835e+09 
7.38368e+09 7.05709e+09 6.61874e+09 6.6283e+09 6.76478e+09 7.15311e+09 6.71266e+09 6.84356e+09 7.00749e+09 
7.01518e+09 7.22662e+09 6.82099e+09 6.90306e+09 6.64775e+09 6.88723e+09 6.91453e+09 6.98944e+09 6.80992e+09 
6.62528e+09 7.04213e+09 6.70979e+09 6.76953e+09 6.80316e+09 6.75227e+09 7.07893e+09 6.776e+09 7.08674e+09 
6.76643e+09 6.81935e+09 6.70231e+09 6.86526e+09 6.79455e+09 7.11592e+09 7.30436e+09 6.70365e+09 7.18333e+09 
6.84476e+09 6.62587e+09 6.62714e+09 6.91952e+09 6.92414e+09 6.72111e+09 6.70047e+09 6.78482e+09 6.88615e+09 
6.94287e+09 7.10114e+09 7.21366e+09 6.68327e+09 6.85847e+09 6.69655e+09 6.66554e+09 7.08199e+09 7.0767e+09 
6.83979e+09 7.11609e+09 6.92507e+09 7.0142e+09 6.84271e+09 7.00547e+09 7.09247e+09 6.83676e+09 6.82816e+09 
6.86045e+09 7.11304e+09 7.36563e+09 7.26081e+09 6.91709e+09 6.92655e+09 7.11682e+09 6.94913e+09 6.67332e+09 
6.93626e+09 6.72903e+09 6.82831e+09 6.93863e+09 6.71494e+09 6.80035e+09 7.24552e+09 6.72648e+09 6.79779e+09 
6.73144e+09 7.15304e+09 6.75842e+09 6.6746e+09 6.73476e+09 6.75776e+09 6.74198e+09 7.05339e+09 6.97231e+09 
6.95132e+09 6.796e+09 7.38211e+09 7.27064e+09 6.98273e+09 6.94895e+09 6.89486e+09 6.93538e+09 6.93384e+09 
6.68901e+09 6.76852e+09 6.80447e+09 6.64039e+09 6.47893e+09 6.74735e+09 6.99629e+09 6.93638e+09 6.86474e+09 
6.7327e+09 6.97902e+09 6.84216e+09 6.91638e+09 6.80353e+09 6.80016e+09 6.82918e+09 6.45064e+09 6.675e+09 
6.99878e+09 6.6168e+09 7.00758e+09 7.24236e+09 6.84864e+09 6.82688e+09 7.05488e+09 7.28361e+09 6.66639e+09 
6.76887e+09 6.89751e+09 7.20588e+09 6.92287e+09 6.53951e+09 6.87405e+09 6.77963e+09 6.86526e+09 6.60546e+09 
6.97163e+09 6.82387e+09 6.8073e+09 6.87906e+09 6.67043e+09 7.11962e+09 6.6741e+09 7.07848e+09 6.77087e+09 
6.71692e+09 6.7809e+09 6.8762e+09 6.79631e+09 6.81432e+09 7.17291e+09 6.85273e+09 6.84882e+09 7.073e+09 
6.8359e+09 6.99884e+09 6.71263e+09 6.8362e+09 6.68172e+09 6.58737e+09 6.84971e+09 6.73173e+09 6.94744e+09 
6.94088e+09 6.89281e+09 6.70286e+09 6.90789e+09 6.86778e+09 6.74477e+09 6.68361e+09 6.83764e+09 6.69108e+09 
6.77175e+09 6.96976e+09 6.90022e+09 6.7812e+09 6.95327e+09 6.80794e+09 6.90233e+09 6.63867e+09 6.70824e+09 
6.64999e+09 6.96331e+09 6.77023e+09 7.40866e+09 7.31045e+09 6.87812e+09 6.73467e+09 6.93977e+09 6.87853e+09 
7.03357e+09 7.08901e+09 7.15098e+09 6.85277e+09 7.14744e+09 7.06773e+09 6.87908e+09 6.85673e+09 6.71478e+09 
7.01383e+09 6.80473e+09 6.59646e+09 6.61176e+09 6.8498e+09 6.90033e+09 6.69665e+09 6.83406e+09 6.80998e+09 
7.07637e+09 6.87728e+09 7.09574e+09 6.71221e+09 6.63863e+09 6.54574e+09 6.80449e+09 6.8152e+09 7.03935e+09 
7.03597e+09 6.8253e+09 7.11834e+09 6.93672e+09 7.13388e+09 6.77515e+09 7.27843e+09 7.0625e+09 6.77206e+09 
6.77656e+09 6.8496e+09 6.79632e+09 6.62571e+09 6.53931e+09 6.53949e+09 6.78812e+09 6.7022e+09 6.68483e+09 
6.72468e+09 6.99604e+09 6.90842e+09 6.80256e+09 6.70459e+09 6.91912e+09 7.01976e+09 7.02973e+09 6.9029e+09 
6.75404e+09 6.63475e+09 6.8991e+09 6.94685e+09 7.13398e+09 6.79248e+09 6.94585e+09 6.67769e+09 6.89405e+09 
6.76401e+09 6.86474e+09 6.84724e+09 6.89767e+09 6.74728e+09 6.71634e+09 6.82825e+09 6.60975e+09 6.52125e+09 
6.66066e+09 6.67691e+09 6.99532e+09 6.59573e+09 7.03913e+09 6.91625e+09 6.49401e+09 7.06439e+09 6.89578e+09 
6.87136e+09 6.86067e+09 6.91834e+09 7.16106e+09 6.65072e+09 6.96736e+09 7.03451e+09 6.88685e+09 7.02464e+09 
7.23659e+09 7.10476e+09 6.75855e+09 6.8651e+09 7.19975e+09 6.84747e+09 6.60219e+09 6.61262e+09 6.965e+09 
6.90611e+09 6.80419e+09 6.86983e+09 6.95792e+09 7.01255e+09 6.91463e+09 6.96572e+09 6.6983e+09 6.45904e+09 
6.95177e+09 6.71775e+09 6.61621e+09 6.60463e+09 6.97678e+09 6.95254e+09 7.23183e+09 7.3772e+09 7.38237e+09 
7.34376e+09 7.06728e+09 6.8808e+09 6.8693e+09 6.85576e+09 6.98462e+09 6.91687e+09 6.76589e+09 7.35382e+09 
7.22837e+09 6.82786e+09 7.09504e+09 6.77599e+09 6.93202e+09 6.80857e+09 7.09717e+09 7.04157e+09 7.59378e+09 
6.94462e+09 6.79512e+09 6.75687e+09 6.70755e+09 6.69712e+09 6.65907e+09 6.71297e+09 6.61789e+09 6.60931e+09 
6.55002e+09 7.04994e+09 7.06069e+09 7.24057e+09 6.91018e+09 6.84044e+09 7.23101e+09 6.57145e+09 6.70662e+09 
6.76381e+09 6.94989e+09 6.89542e+09 6.96047e+09 7.44435e+09 6.881e+09 6.7354e+09 6.7068e+09 6.99701e+09 
6.82575e+09 6.70067e+09 6.93374e+09 6.79478e+09 6.72495e+09 6.89854e+09 6.78409e+09 6.74232e+09 6.8986e+09 
6.82828e+09 6.93766e+09 7.02244e+09 6.54012e+09 6.52453e+09 7.03404e+09 6.96059e+09 6.99948e+09 6.84044e+09 
6.89123e+09 7.18941e+09 7.02153e+09 6.79851e+09 6.66543e+09 7.05418e+09 7.08013e+09 6.72043e+09 6.85393e+09 
7.71256e+09 7.05099e+09 7.00904e+09 6.63261e+09 6.76097e+09 6.79119e+09 7.11446e+09 6.75012e+09 6.80064e+09 
7.03446e+09 6.99627e+09 6.80232e+09 6.79331e+09 6.78317e+09 6.75781e+09 7.32803e+09 7.3387e+09 6.81134e+09 
6.93523e+09 6.85287e+09 6.91179e+09 7.09672e+09 7.0507e+09 7.07043e+09 6.75065e+09 6.7227e+09 6.9665e+09 
7.1036e+09 6.97631e+09 7.0595e+09 6.97384e+09 6.98567e+09 7.09311e+09 7.1422e+09 7.03858e+09 7.03111e+09 
6.98955e+09 6.75621e+09 6.87062e+09 7.03459e+09 6.99182e+09 6.77325e+09 6.97903e+09 6.83901e+09 6.9437e+09 
6.7709e+09 6.66331e+09 6.80262e+09 6.90149e+09 6.88935e+09 6.93979e+09 6.67004e+09 6.8155e+09 7.14026e+09 
7.02449e+09 7.35247e+09 7.04932e+09 6.97888e+09 6.88596e+09 6.99409e+09 6.88996e+09 6.89753e+09 6.88031e+09 
6.78103e+09 6.86836e+09 6.93766e+09 7.0972e+09 6.97348e+09 7.02263e+09 7.17225e+09 6.86482e+09 6.84339e+09 
7.21708e+09 7.26611e+09 7.16942e+09 7.05646e+09 7.19018e+09 6.70481e+09 7.35401e+09 6.9737e+09 6.77838e+09 
6.79146e+09 6.63728e+09 7.02759e+09 6.81938e+09 7.09958e+09 6.79623e+09 6.81929e+09 6.63639e+09 6.6714e+09 
6.9173e+09 6.70675e+09 6.76924e+09 6.9942e+09 6.80486e+09 6.90243e+09 7.15723e+09 7.6888e+09 7.17494e+09 
6.74888e+09 7.1837e+09 7.00621e+09 6.87407e+09 6.56226e+09 6.92574e+09 7.15047e+09 6.82663e+09 7.04603e+09 
6.91139e+09 7.20136e+09 7.24325e+09 7.03041e+09 6.69463e+09 6.60621e+09 6.62577e+09 6.80876e+09 6.80781e+09 
6.71643e+09 6.72767e+09 6.69289e+09 6.94387e+09 7.22444e+09 7.57283e+09 7.03023e+09 7.05285e+09 7.08278e+09 
7.30148e+09 7.26457e+09 6.96894e+09 7.5984e+09 7.25839e+09 6.98864e+09 6.84168e+09 6.82228e+09 7.04028e+09 
6.95644e+09 6.87909e+09 6.86704e+09 6.83683e+09 6.83647e+09 6.68401e+09 6.72186e+09 6.84668e+09 7.01424e+09 
6.77698e+09 6.59414e+09 6.71113e+09 7.01182e+09 7.16077e+09 7.34924e+09 7.16486e+09 6.91928e+09 6.75387e+09 