# vtk DataFile Version 3.0
vtk output
ASCII
DATASET RECTILINEAR_GRID
FIELD FieldData 4
MeshName 1 1 string
mesh

CYCLE 1 1 int
10 
TIME 1 1 double
10 
avtOriginalBounds 1 6 double
0 1.95312 1.0376 1.28174 0 1.95312 
DIMENSIONS 33 5 33
X_COORDINATES 33 double
0 0.0610352 0.12207 0.183105 0.244141 0.305176 0.366211 0.427246 0.488281 
0.549316 0.610352 0.671387 0.732422 0.793457 0.854492 0.915527 0.976562 1.0376 
1.09863 1.15967 1.2207 1.28174 1.34277 1.40381 1.46484 1.52588 1.58691 
1.64795 1.70898 1.77002 1.83105 1.89209 1.95312 
Y_COORDINATES 5 double
1.0376 1.09863 1.15967 1.2207 1.28174 
Z_COORDINATES 33 double
0 0.0610352 0.12207 0.183105 0.244141 0.305176 0.366211 0.427246 0.488281 
0.549316 0.610352 0.671387 0.732422 0.793457 0.854492 0.915527 0.976562 1.0376 
1.09863 1.15967 1.2207 1.28174 1.34277 1.40381 1.46484 1.52588 1.58691 
1.64795 1.70898 1.77002 1.83105 1.89209 1.95312 
CELL_DATA 4096
SCALARS simdata double
LOOKUP_TABLE default
6.91964e+09 7.03903e+09 7.12857e+09 7.09955e+09 7.26156e+09 7.0531e+09 6.89385e+09 7.163e+09 6.93202e+09 
6.99267e+09 6.96396e+09 7.83321e+09 7.1188e+09 7.07305e+09 6.80451e+09 7.14536e+09 6.74964e+09 6.9215e+09 
7.24961e+09 7.23695e+09 6.96697e+09 6.998e+09 7.07165e+09 7.0053e+09 6.76748e+09 6.85464e+09 6.83505e+09 
7.09342e+09 6.81262e+09 7.01732e+09 7.19402e+09 7.18448e+09 7.10836e+09 7.43014e+09 7.31239e+09 7.29161e+09 
7.19617e+09 6.82711e+09 7.02396e+09 6.67923e+09 6.948e+09 6.7294e+09 7.03937e+09 6.85124e+09 7.07418e+09 
7.12355e+09 7.09357e+09 6.94258e+09 7.391e+09 7.01298e+09 7.17652e+09 7.0551e+09 6.66526e+09 7.09622e+09 
6.84236e+09 6.9277e+09 6.98681e+09 6.98981e+09 6.96974e+09 6.98353e+09 6.96783e+09 6.83449e+09 6.90464e+09 
6.82457e+09 6.93074e+09 6.82726e+09 7.13545e+09 7.63887e+09 7.17357e+09 6.99755e+09 6.9268e+09 6.66499e+09 
6.91721e+09 6.71355e+09 6.98397e+09 6.81716e+09 6.99874e+09 7.25334e+09 7.14633e+09 7.07926e+09 6.68883e+09 
7.34535e+09 6.94225e+09 6.83936e+09 7.12007e+09 7.22471e+09 6.99112e+09 6.68898e+09 7.13656e+09 6.8844e+09 
7.12533e+09 6.84144e+09 6.88873e+09 6.90404e+09 6.77523e+09 6.73706e+09 7.35821e+09 6.91277e+09 6.87789e+09 
7.16073e+09 7.05621e+09 6.93614e+09 6.96677e+09 7.06585e+09 6.88703e+09 7.44777e+09 6.83967e+09 7.01402e+09 
6.82635e+09 6.90662e+09 6.90417e+09 7.19703e+09 7.18664e+09 7.13574e+09 6.834e+09 6.62736e+09 6.95699e+09 
7.45636e+09 6.84102e+09 6.65801e+09 6.81366e+09 6.96881e+09 7.40423e+09 7.16139e+09 6.91029e+09 7.01166e+09 
6.97452e+09 6.85668e+09 6.59175e+09 7.04578e+09 7.20094e+09 7.18363e+09 7.02609e+09 7.03158e+09 7.21193e+09 
7.12474e+09 7.36221e+09 6.85627e+09 7.66259e+09 7.91105e+09 7.08848e+09 6.97941e+09 7.15256e+09 7.66721e+09 
6.81416e+09 6.91267e+09 7.12035e+09 6.9849e+09 6.91375e+09 7.03467e+09 7.28268e+09 7.05884e+09 6.97277e+09 
7.07768e+09 6.85906e+09 6.85942e+09 6.91358e+09 7.19246e+09 7.29042e+09 7.26504e+09 6.65994e+09 6.98952e+09 
6.90623e+09 7.05635e+09 6.86224e+09 6.94243e+09 6.8922e+09 6.77903e+09 7.11216e+09 7.20997e+09 7.38178e+09 
7.06134e+09 7.15815e+09 6.81704e+09 7.04395e+09 6.98022e+09 7.07718e+09 6.98402e+09 7.3223e+09 7.04816e+09 
6.9346e+09 7.15992e+09 7.05943e+09 7.25721e+09 7.21832e+09 7.01708e+09 6.59397e+09 7.24854e+09 6.99181e+09 
7.1483e+09 7.13958e+09 7.04604e+09 6.68284e+09 7.08083e+09 7.08561e+09 7.05102e+09 6.82632e+09 7.16234e+09 
6.86176e+09 6.6221e+09 6.66343e+09 6.92905e+09 6.94156e+09 6.82377e+09 7.01162e+09 7.04988e+09 6.96016e+09 
6.77265e+09 6.75469e+09 7.06029e+09 6.98084e+09 6.96813e+09 7.06195e+09 7.02389e+09 6.98963e+09 7.00398e+09 
6.94153e+09 6.87577e+09 6.93272e+09 6.88998e+09 6.75244e+09 6.76174e+09 6.59813e+09 6.74814e+09 6.77269e+09 
6.72001e+09 6.62974e+09 7.03969e+09 6.91701e+09 6.80629e+09 6.67346e+09 7.13464e+09 6.9835e+09 7.12704e+09 
6.79302e+09 6.77269e+09 6.92782e+09 6.84834e+09 6.75997e+09 6.86442e+09 6.99399e+09 6.97578e+09 7.06687e+09 
6.88691e+09 6.89773e+09 7.12486e+09 6.85822e+09 7.13461e+09 6.95206e+09 6.90926e+09 6.84229e+09 7.09821e+09 
7.08535e+09 6.89594e+09 7.09048e+09 6.86513e+09 6.74435e+09 7.02981e+09 7.09861e+09 6.87942e+09 6.66107e+09 
6.93569e+09 7.2011e+09 7.10902e+09 6.86292e+09 6.87479e+09 7.50501e+09 7.23563e+09 6.9686e+09 6.81171e+09 
6.8145e+09 7.17089e+09 6.85662e+09 7.34998e+09 7.43139e+09 7.30327e+09 7.48577e+09 7.21347e+09 7.51967e+09 
7.36885e+09 6.99463e+09 7.14285e+09 7.06077e+09 7.18273e+09 6.98866e+09 7.03192e+09 7.32689e+09 7.74595e+09 
6.79109e+09 6.94893e+09 7.16355e+09 6.85323e+09 6.88185e+09 6.96757e+09 6.92764e+09 6.8756e+09 7.22569e+09 
7.13488e+09 7.37835e+09 6.88636e+09 7.06148e+09 6.92447e+09 7.6652e+09 7.07484e+09 7.0621e+09 7.36485e+09 
7.00548e+09 7.02991e+09 6.68878e+09 7.2034e+09 6.79074e+09 6.98217e+09 6.92024e+09 6.87713e+09 6.98879e+09 
7.16136e+09 7.06282e+09 6.78898e+09 6.93131e+09 7.16551e+09 6.88792e+09 6.7521e+09 6.78752e+09 6.98712e+09 
7.00468e+09 7.09147e+09 7.16281e+09 6.89724e+09 7.33076e+09 7.09419e+09 7.07964e+09 6.88208e+09 7.10434e+09 
6.88071e+09 6.96258e+09 7.05849e+09 7.02261e+09 7.0826e+09 7.05156e+09 7.1453e+09 6.85445e+09 7.13754e+09 
6.9529e+09 6.97543e+09 6.9287e+09 6.80987e+09 6.88408e+09 6.90025e+09 6.68207e+09 6.84667e+09 6.75603e+09 
6.87285e+09 6.74147e+09 6.84732e+09 6.95564e+09 6.88558e+09 7.30772e+09 7.46641e+09 6.86056e+09 6.56205e+09 
7.7072e+09 6.98359e+09 6.88018e+09 6.54677e+09 6.77525e+09 6.94524e+09 7.01401e+09 7.04505e+09 6.7375e+09 
6.85464e+09 6.95578e+09 7.47504e+09 6.85435e+09 7.03228e+09 6.86508e+09 6.98656e+09 6.75512e+09 6.819e+09 
6.96915e+09 6.88438e+09 7.00658e+09 6.76533e+09 6.97597e+09 7.20804e+09 6.66073e+09 6.75377e+09 6.85164e+09 
7.22874e+09 7.16313e+09 6.79577e+09 7.17163e+09 7.00847e+09 6.7651e+09 7.28135e+09 7.15491e+09 6.88897e+09 
6.90467e+09 7.29491e+09 7.03882e+09 7.25984e+09 7.20737e+09 7.31712e+09 7.35064e+09 7.57288e+09 7.49973e+09 
7.41808e+09 7.41565e+09 7.50703e+09 6.91027e+09 6.87523e+09 7.2792e+09 7.18312e+09 6.99128e+09 6.95304e+09 
7.18972e+09 7.11259e+09 6.70016e+09 6.64093e+09 6.57916e+09 6.7349e+09 6.97772e+09 6.82045e+09 7.22942e+09 
7.21368e+09 7.25282e+09 6.78731e+09 7.02917e+09 7.215e+09 6.88278e+09 6.96284e+09 7.00653e+09 7.16482e+09 
6.89987e+09 7.14807e+09 7.06903e+09 7.10137e+09 7.15692e+09 7.51735e+09 7.44916e+09 7.32791e+09 6.77309e+09 
7.02751e+09 6.98274e+09 6.91283e+09 6.82484e+09 6.80082e+09 7.29521e+09 7.32682e+09 6.92012e+09 6.62944e+09 
6.8084e+09 6.49465e+09 6.75618e+09 7.14787e+09 7.06602e+09 6.95364e+09 7.23227e+09 7.05475e+09 7.64826e+09 
7.17833e+09 7.21336e+09 7.00996e+09 7.17372e+09 7.06035e+09 7.2212e+09 7.06628e+09 7.02516e+09 6.97016e+09 
6.74585e+09 6.82867e+09 7.40979e+09 7.12167e+09 6.70777e+09 6.86856e+09 7.02682e+09 7.29694e+09 6.93982e+09 
6.88339e+09 6.90106e+09 7.1006e+09 6.78626e+09 6.87059e+09 6.79702e+09 6.57918e+09 6.91268e+09 7.01306e+09 
6.78298e+09 6.88776e+09 7.21569e+09 6.95301e+09 6.86282e+09 6.9789e+09 6.65587e+09 6.92192e+09 6.97488e+09 
6.6742e+09 6.83852e+09 7.23113e+09 7.16691e+09 7.02501e+09 6.74633e+09 6.90077e+09 6.8951e+09 7.01898e+09 
7.09712e+09 6.79785e+09 6.90759e+09 7.12815e+09 6.95454e+09 6.84962e+09 7.26669e+09 7.1166e+09 6.5851e+09 
6.66518e+09 6.75952e+09 7.2287e+09 7.00095e+09 7.14069e+09 6.93209e+09 7.20337e+09 6.96337e+09 7.28818e+09 
6.87302e+09 6.75994e+09 6.64481e+09 7.38528e+09 6.92497e+09 7.38626e+09 7.3084e+09 7.68002e+09 7.20467e+09 
7.8083e+09 7.51027e+09 7.33914e+09 7.27403e+09 7.18872e+09 7.16868e+09 6.99692e+09 7.006e+09 7.16596e+09 
8.21863e+09 8.09831e+09 7.15228e+09 7.59906e+09 6.74101e+09 6.87935e+09 6.83266e+09 6.83185e+09 6.76327e+09 
6.72264e+09 7.0961e+09 6.89006e+09 7.06342e+09 7.26798e+09 6.82426e+09 6.59549e+09 6.57412e+09 6.9508e+09 
7.00462e+09 7.33207e+09 7.59169e+09 7.52069e+09 7.21528e+09 7.52239e+09 7.14217e+09 7.23531e+09 7.0723e+09 
6.999e+09 6.74982e+09 6.93416e+09 7.12615e+09 7.11194e+09 6.817e+09 7.42388e+09 7.42076e+09 7.7216e+09 
7.04459e+09 6.98732e+09 6.7142e+09 6.80134e+09 6.86302e+09 6.94659e+09 6.98925e+09 6.93225e+09 7.188e+09 
7.13806e+09 6.77332e+09 6.87736e+09 6.7623e+09 6.85786e+09 6.83327e+09 6.86717e+09 6.8735e+09 7.29331e+09 
6.92852e+09 7.35189e+09 7.27326e+09 6.78578e+09 6.84601e+09 7.08292e+09 6.8708e+09 6.74388e+09 7.05659e+09 
6.97932e+09 6.97136e+09 7.17588e+09 7.55461e+09 7.47574e+09 6.94559e+09 6.74812e+09 6.97653e+09 6.78581e+09 
6.95832e+09 6.66922e+09 6.77623e+09 7.15631e+09 7.03829e+09 7.00361e+09 6.92321e+09 7.1235e+09 6.6696e+09 
6.88789e+09 6.94301e+09 6.61136e+09 6.79211e+09 7.27112e+09 7.00748e+09 7.12483e+09 7.47262e+09 6.56473e+09 
6.76963e+09 7.08293e+09 7.05411e+09 6.93198e+09 6.80739e+09 6.78369e+09 6.95058e+09 6.75695e+09 7.44388e+09 
7.02414e+09 7.1398e+09 6.86995e+09 6.92401e+09 6.84012e+09 6.7858e+09 6.73533e+09 7.17673e+09 6.89546e+09 
7.01301e+09 6.83219e+09 7.19861e+09 7.03855e+09 6.73033e+09 6.86343e+09 7.09979e+09 6.87883e+09 7.18975e+09 
7.24076e+09 7.34499e+09 7.30212e+09 7.2214e+09 7.03259e+09 6.96286e+09 7.0542e+09 6.65702e+09 6.9429e+09 
6.87223e+09 6.81787e+09 6.97743e+09 7.35791e+09 7.39205e+09 7.18146e+09 6.91462e+09 6.91e+09 6.91026e+09 
6.99401e+09 6.88808e+09 6.91122e+09 7.19072e+09 7.20464e+09 6.6873e+09 7.12664e+09 6.84232e+09 6.84023e+09 
6.69774e+09 7.07785e+09 7.09115e+09 7.3255e+09 7.10985e+09 7.15064e+09 7.12668e+09 7.70767e+09 7.20191e+09 
6.9392e+09 6.90924e+09 6.93296e+09 6.66693e+09 6.86779e+09 6.86609e+09 6.84481e+09 6.92858e+09 6.72369e+09 
6.90668e+09 7.11419e+09 6.90818e+09 6.93238e+09 6.9321e+09 7.29907e+09 7.00766e+09 6.74026e+09 6.90982e+09 
7.17766e+09 7.03555e+09 6.88453e+09 6.92416e+09 6.84031e+09 6.59487e+09 6.71307e+09 6.65354e+09 7.01786e+09 
7.03065e+09 6.94997e+09 6.64165e+09 6.89754e+09 7.28436e+09 7.03136e+09 6.89663e+09 6.87176e+09 6.98746e+09 
6.84058e+09 7.02444e+09 6.63902e+09 7.21983e+09 7.20533e+09 7.07642e+09 7.35046e+09 6.87977e+09 6.70558e+09 
7.03304e+09 6.72254e+09 6.80106e+09 6.8853e+09 6.99519e+09 7.03214e+09 6.73275e+09 6.77155e+09 6.95038e+09 
6.83402e+09 6.78791e+09 6.71156e+09 7.1263e+09 6.87159e+09 6.92699e+09 6.74235e+09 6.91777e+09 6.88967e+09 
7.17975e+09 6.75456e+09 6.89655e+09 7.01668e+09 6.91091e+09 7.00161e+09 6.6418e+09 6.86702e+09 6.96758e+09 
6.94344e+09 6.97124e+09 7.19412e+09 7.31674e+09 6.87813e+09 6.86906e+09 6.85447e+09 7.05051e+09 6.78764e+09 
6.86231e+09 6.53003e+09 6.65021e+09 6.79603e+09 6.74564e+09 7.06059e+09 7.19571e+09 7.16191e+09 6.97394e+09 
7.03573e+09 6.81351e+09 7.11483e+09 6.97944e+09 7.18646e+09 7.36705e+09 6.87263e+09 7.07359e+09 7.13328e+09 
6.8585e+09 6.98816e+09 6.8782e+09 6.81699e+09 6.98046e+09 7.07623e+09 7.13418e+09 7.24367e+09 7.06457e+09 
7.06558e+09 7.29573e+09 7.10311e+09 6.69406e+09 6.76512e+09 6.83671e+09 6.69947e+09 6.64666e+09 6.84738e+09 
6.76288e+09 6.84773e+09 6.78298e+09 6.73038e+09 6.99184e+09 7.13141e+09 7.3318e+09 7.15755e+09 6.64801e+09 
7.54774e+09 7.12442e+09 6.88482e+09 7.06114e+09 6.85525e+09 6.785e+09 6.67709e+09 6.8615e+09 6.77087e+09 
6.79348e+09 6.90048e+09 7.20638e+09 6.79417e+09 7.01996e+09 6.94995e+09 7.0119e+09 7.12161e+09 6.63092e+09 
6.81926e+09 6.93103e+09 6.86389e+09 6.72532e+09 6.69725e+09 6.87297e+09 6.65068e+09 6.88631e+09 6.76081e+09 
6.86582e+09 7.00216e+09 7.48408e+09 6.89403e+09 6.77506e+09 6.93364e+09 7.12233e+09 6.79967e+09 7.36757e+09 
6.93886e+09 6.97537e+09 6.80694e+09 6.68848e+09 6.70463e+09 7.50932e+09 7.07922e+09 7.67833e+09 7.51961e+09 
7.19235e+09 6.79775e+09 6.91009e+09 6.85721e+09 7.02118e+09 6.56651e+09 6.54911e+09 6.64712e+09 6.84756e+09 
7.03892e+09 7.27388e+09 7.01984e+09 6.83146e+09 6.61124e+09 6.86398e+09 7.12818e+09 7.12124e+09 7.33158e+09 
7.2995e+09 6.88492e+09 7.08676e+09 6.92898e+09 7.13934e+09 7.28043e+09 7.08204e+09 6.68492e+09 6.55122e+09 
6.61859e+09 6.99159e+09 6.98582e+09 7.28604e+09 7.5566e+09 7.12721e+09 7.03107e+09 7.01493e+09 6.80028e+09 
6.94709e+09 6.88263e+09 6.80865e+09 6.75704e+09 6.76252e+09 6.8955e+09 7.09985e+09 6.58502e+09 7.06874e+09 
6.8984e+09 7.13535e+09 7.26449e+09 7.05424e+09 7.10013e+09 6.89279e+09 7.04862e+09 6.94015e+09 6.79802e+09 
7.03646e+09 6.77845e+09 7.51006e+09 7.24721e+09 7.11936e+09 6.87566e+09 7.04045e+09 6.81537e+09 6.91528e+09 
7.12298e+09 6.78176e+09 6.81434e+09 6.79569e+09 6.74795e+09 6.87125e+09 6.93229e+09 6.57507e+09 6.86655e+09 
7.0647e+09 6.69391e+09 6.85504e+09 6.64877e+09 6.92063e+09 6.94778e+09 7.22294e+09 7.10467e+09 7.29957e+09 
6.96486e+09 6.98705e+09 6.95078e+09 7.00294e+09 6.62903e+09 6.84849e+09 7.06279e+09 6.83191e+09 7.03232e+09 
6.97787e+09 6.90231e+09 7.11069e+09 7.15668e+09 6.99691e+09 6.73956e+09 7.00301e+09 6.8558e+09 6.97534e+09 
7.17847e+09 6.82711e+09 6.64407e+09 6.48356e+09 6.78495e+09 6.88573e+09 6.95823e+09 7.01961e+09 6.84321e+09 
6.96828e+09 6.9082e+09 7.01793e+09 6.82582e+09 7.39658e+09 7.23201e+09 7.19546e+09 7.75195e+09 6.9403e+09 
6.69293e+09 7.05762e+09 6.97414e+09 6.88272e+09 6.8112e+09 7.47091e+09 6.86117e+09 6.97237e+09 7.06021e+09 
7.09752e+09 7.48073e+09 7.01692e+09 7.00205e+09 7.30057e+09 7.20216e+09 7.08731e+09 6.70845e+09 6.70437e+09 
7.14944e+09 7.07663e+09 7.10309e+09 7.14057e+09 7.03971e+09 6.71243e+09 7.10913e+09 6.96088e+09 6.82189e+09 
6.80065e+09 7.75416e+09 7.33105e+09 7.1374e+09 6.88189e+09 7.00307e+09 7.20115e+09 6.89131e+09 6.99942e+09 
6.99269e+09 7.22393e+09 6.72657e+09 7.20249e+09 7.13746e+09 7.23625e+09 7.33428e+09 6.94731e+09 7.13158e+09 
6.69596e+09 6.50697e+09 6.79124e+09 6.92197e+09 6.79405e+09 6.91524e+09 6.94576e+09 7.07885e+09 6.8751e+09 
6.75773e+09 6.8582e+09 7.42808e+09 7.18192e+09 7.19392e+09 6.99402e+09 6.99084e+09 6.88723e+09 6.71747e+09 
6.74271e+09 6.65527e+09 6.80849e+09 6.83297e+09 6.71651e+09 7.70214e+09 6.95202e+09 7.04169e+09 7.54351e+09 
7.03348e+09 7.15154e+09 6.92015e+09 6.9331e+09 6.68691e+09 6.84499e+09 7.06845e+09 6.72179e+09 6.72588e+09 
6.76645e+09 7.03049e+09 6.6925e+09 6.8659e+09 7.1253e+09 7.1153e+09 6.67494e+09 6.89583e+09 6.89613e+09 
7.28983e+09 7.43529e+09 7.02062e+09 6.79848e+09 7.13635e+09 6.93119e+09 6.83288e+09 7.08695e+09 7.13544e+09 
7.10755e+09 7.15536e+09 6.90921e+09 6.77548e+09 7.07017e+09 7.08985e+09 6.99835e+09 6.88059e+09 7.07822e+09 
7.09597e+09 6.86451e+09 6.88513e+09 6.98687e+09 7.02957e+09 6.69854e+09 7.14657e+09 6.88282e+09 6.74027e+09 
7.2994e+09 7.20084e+09 7.18688e+09 7.39042e+09 6.808e+09 7.09925e+09 7.32619e+09 7.12938e+09 7.16783e+09 
7.27705e+09 7.21374e+09 6.68427e+09 7.40346e+09 6.96768e+09 6.96289e+09 6.79732e+09 6.82915e+09 7.03889e+09 
7.51719e+09 7.09904e+09 7.19745e+09 7.24782e+09 7.14194e+09 7.12677e+09 7.06238e+09 6.79528e+09 7.0727e+09 
6.76106e+09 6.74352e+09 7.19716e+09 7.20982e+09 7.15935e+09 7.24347e+09 6.86482e+09 7.39639e+09 7.376e+09 
6.79158e+09 6.80394e+09 6.88379e+09 7.25526e+09 7.27325e+09 7.20992e+09 7.15623e+09 6.96954e+09 7.41272e+09 
7.04549e+09 6.84014e+09 6.97353e+09 6.99802e+09 6.83242e+09 6.88545e+09 7.13017e+09 7.02669e+09 7.43854e+09 
6.68392e+09 6.8047e+09 6.66381e+09 6.78874e+09 6.87786e+09 7.35547e+09 6.87185e+09 6.90927e+09 6.92339e+09 
6.83162e+09 6.88163e+09 6.9727e+09 6.67274e+09 7.10921e+09 7.17379e+09 7.06854e+09 6.94094e+09 6.92429e+09 
7.12397e+09 6.72974e+09 6.70131e+09 6.67288e+09 6.90186e+09 6.83801e+09 7.08847e+09 7.10887e+09 7.12057e+09 
6.79093e+09 6.95074e+09 6.82126e+09 6.77709e+09 7.06898e+09 6.78982e+09 6.94889e+09 6.90721e+09 7.06396e+09 
7.02769e+09 6.9815e+09 6.79205e+09 6.62692e+09 7.01999e+09 6.93181e+09 6.9111e+09 6.73553e+09 6.97826e+09 
7.61138e+09 6.91405e+09 7.00912e+09 7.15185e+09 7.02293e+09 6.75772e+09 7.00181e+09 6.91067e+09 6.72065e+09 
7.22598e+09 7.01458e+09 6.7605e+09 7.21984e+09 6.93794e+09 6.88951e+09 7.28202e+09 7.16363e+09 7.19618e+09 
7.24645e+09 6.84303e+09 6.93512e+09 7.01345e+09 6.87454e+09 6.92998e+09 7.15106e+09 6.98433e+09 7.11078e+09 
6.62922e+09 6.77333e+09 6.77668e+09 7.11456e+09 7.11368e+09 7.60686e+09 6.99978e+09 6.91793e+09 7.31477e+09 
6.87755e+09 6.92179e+09 6.93265e+09 6.77795e+09 7.47426e+09 7.69364e+09 7.1036e+09 6.93057e+09 7.17876e+09 
6.81645e+09 7.04621e+09 7.72163e+09 7.28641e+09 7.30753e+09 7.15317e+09 7.04451e+09 6.8471e+09 7.0243e+09 
7.31684e+09 6.90451e+09 6.92284e+09 6.86781e+09 6.81288e+09 6.79344e+09 6.90466e+09 6.95188e+09 6.98316e+09 
7.17562e+09 7.1518e+09 7.16044e+09 7.07335e+09 7.27264e+09 6.86419e+09 6.79716e+09 7.06529e+09 7.14846e+09 
7.47283e+09 7.77488e+09 7.24375e+09 7.17377e+09 7.17663e+09 7.22015e+09 6.83648e+09 7.02746e+09 7.57355e+09 
6.98522e+09 7.05378e+09 6.60395e+09 6.80999e+09 6.89054e+09 6.74815e+09 6.74591e+09 6.91782e+09 7.11408e+09 
7.16582e+09 6.92655e+09 7.24973e+09 6.88664e+09 6.91071e+09 6.8773e+09 7.32838e+09 6.93864e+09 7.06446e+09 
6.87821e+09 7.00799e+09 7.04159e+09 6.86522e+09 7.15678e+09 7.02403e+09 7.17765e+09 6.83784e+09 7.00217e+09 
7.26639e+09 6.88452e+09 7.14362e+09 6.8843e+09 7.08128e+09 7.04032e+09 7.12499e+09 6.69175e+09 7.17297e+09 
6.8323e+09 6.95048e+09 6.61504e+09 6.89013e+09 6.76385e+09 6.50512e+09 6.91608e+09 6.91464e+09 7.27938e+09 
6.87268e+09 7.1165e+09 7.26044e+09 7.3421e+09 7.18718e+09 7.01129e+09 7.14994e+09 6.73653e+09 6.98122e+09 
7.19468e+09 6.86151e+09 7.14539e+09 7.31552e+09 6.66668e+09 6.80615e+09 6.90148e+09 7.21072e+09 7.23268e+09 
7.07944e+09 6.78891e+09 6.80636e+09 6.84415e+09 7.21025e+09 7.15002e+09 7.69914e+09 7.23508e+09 6.85465e+09 
6.95826e+09 6.98657e+09 7.11228e+09 6.68707e+09 6.9175e+09 6.86631e+09 7.18608e+09 7.32197e+09 7.37041e+09 
7.10063e+09 7.24761e+09 7.09618e+09 7.07958e+09 6.96048e+09 6.58772e+09 7.05518e+09 7.24615e+09 7.27002e+09 
6.73067e+09 6.8392e+09 6.98043e+09 7.30449e+09 7.11427e+09 6.85334e+09 7.09403e+09 7.19516e+09 7.51299e+09 
7.22501e+09 7.23822e+09 7.24436e+09 6.95673e+09 6.91445e+09 6.79496e+09 7.08155e+09 6.57548e+09 6.80489e+09 
6.93002e+09 6.96315e+09 7.38074e+09 7.35428e+09 7.89497e+09 6.99637e+09 6.89014e+09 6.78831e+09 6.76975e+09 
7.00395e+09 6.92838e+09 7.52143e+09 7.45966e+09 7.07807e+09 7.29736e+09 6.97878e+09 7.17447e+09 6.94425e+09 
7.21663e+09 7.20067e+09 6.97394e+09 6.99636e+09 6.82906e+09 7.33988e+09 6.89629e+09 6.68235e+09 6.68264e+09 
6.71447e+09 7.17245e+09 6.56037e+09 6.76594e+09 6.98957e+09 7.05974e+09 6.99072e+09 7.12884e+09 7.08945e+09 
7.58667e+09 7.09878e+09 6.90376e+09 7.21868e+09 7.55907e+09 7.32605e+09 7.05687e+09 6.95246e+09 6.9667e+09 
6.91484e+09 6.69246e+09 6.82575e+09 7.12518e+09 7.19021e+09 7.18607e+09 7.25028e+09 7.19122e+09 7.1406e+09 
6.74155e+09 7.13018e+09 6.70264e+09 6.9521e+09 6.72811e+09 7.13315e+09 6.73962e+09 6.79084e+09 7.09063e+09 
7.20715e+09 7.44997e+09 6.98218e+09 6.97791e+09 7.13206e+09 7.32102e+09 6.83729e+09 7.12125e+09 7.19045e+09 
7.08917e+09 6.98066e+09 7.12261e+09 6.92874e+09 7.21641e+09 7.13976e+09 7.11984e+09 7.35229e+09 7.17037e+09 
7.06902e+09 7.13206e+09 7.02058e+09 7.18304e+09 6.91048e+09 6.68425e+09 6.6374e+09 6.91767e+09 7.27349e+09 
7.00752e+09 7.01892e+09 6.84863e+09 6.94836e+09 6.9505e+09 7.0684e+09 6.83392e+09 6.99225e+09 6.7397e+09 
7.19476e+09 7.46951e+09 6.88186e+09 7.02248e+09 7.20686e+09 7.10099e+09 7.05477e+09 6.88028e+09 6.80942e+09 
6.93197e+09 7.30721e+09 7.02362e+09 7.12943e+09 7.26729e+09 7.43078e+09 7.07415e+09 7.11739e+09 7.22725e+09 
6.92068e+09 6.86599e+09 6.7404e+09 7.22093e+09 7.33451e+09 7.31582e+09 6.93055e+09 6.87002e+09 6.80455e+09 
6.73989e+09 6.82219e+09 6.83626e+09 7.04766e+09 7.18789e+09 7.56787e+09 7.47878e+09 7.0798e+09 7.20872e+09 
7.11544e+09 6.8986e+09 6.96057e+09 6.75281e+09 6.95238e+09 7.19056e+09 7.2392e+09 7.50887e+09 7.17698e+09 
6.99521e+09 7.03364e+09 7.09566e+09 7.19169e+09 7.19003e+09 7.16096e+09 6.64725e+09 7.51871e+09 7.1766e+09 
7.11194e+09 6.91504e+09 6.77777e+09 7.12919e+09 6.71081e+09 6.98022e+09 7.06e+09 6.75818e+09 6.90385e+09 
7.33923e+09 7.27278e+09 8.04427e+09 7.59494e+09 7.31731e+09 7.59906e+09 7.36459e+09 7.98237e+09 7.07689e+09 
6.96683e+09 6.87072e+09 7.04975e+09 6.94151e+09 7.18357e+09 7.21515e+09 7.61364e+09 7.36807e+09 6.95655e+09 
7.30632e+09 7.1702e+09 7.11331e+09 6.80071e+09 6.94427e+09 6.76443e+09 6.80312e+09 6.73346e+09 6.87445e+09 
6.7519e+09 6.93527e+09 6.95465e+09 7.2178e+09 7.22392e+09 7.03841e+09 6.93824e+09 7.9477e+09 7.09209e+09 
6.95174e+09 7.24405e+09 7.21125e+09 7.47207e+09 7.05252e+09 7.13535e+09 6.90372e+09 6.59893e+09 6.98248e+09 
6.8878e+09 6.72704e+09 7.10874e+09 7.08701e+09 6.93094e+09 6.95897e+09 7.02529e+09 7.14619e+09 6.96032e+09 
6.75009e+09 6.94098e+09 6.8919e+09 6.88415e+09 7.23283e+09 7.15004e+09 6.96038e+09 6.77539e+09 6.89868e+09 
7.29566e+09 6.84764e+09 7.07108e+09 7.34629e+09 7.01626e+09 7.13851e+09 7.28572e+09 7.13885e+09 7.11761e+09 
7.29761e+09 6.81938e+09 6.91189e+09 7.05515e+09 7.28772e+09 7.08115e+09 6.79976e+09 6.85434e+09 7.25247e+09 
6.89733e+09 7.25793e+09 7.14377e+09 6.76363e+09 6.68031e+09 6.76248e+09 6.68527e+09 6.77906e+09 6.66846e+09 
6.992e+09 6.72266e+09 6.79196e+09 6.83053e+09 7.41105e+09 7.35543e+09 7.26545e+09 7.32025e+09 7.63435e+09 
6.96e+09 6.9555e+09 7.06375e+09 7.1357e+09 7.61282e+09 7.38275e+09 7.11774e+09 7.03466e+09 7.01577e+09 
6.99192e+09 6.92857e+09 7.03271e+09 7.22936e+09 7.29112e+09 7.50651e+09 7.1305e+09 6.95676e+09 6.72222e+09 
6.75228e+09 7.04144e+09 7.14567e+09 6.87229e+09 6.98445e+09 7.03997e+09 6.81447e+09 6.93818e+09 7.00565e+09 
7.00511e+09 7.25707e+09 7.31184e+09 7.41411e+09 7.44601e+09 7.14678e+09 6.8799e+09 6.98969e+09 6.85234e+09 
7.0684e+09 6.93231e+09 6.87847e+09 6.67417e+09 6.95067e+09 6.88017e+09 6.90254e+09 7.25507e+09 7.38543e+09 
7.12039e+09 6.86844e+09 6.92814e+09 6.86581e+09 6.76683e+09 6.78409e+09 6.95143e+09 7.00616e+09 7.01658e+09 
6.93043e+09 6.89595e+09 6.77843e+09 6.72882e+09 6.85681e+09 6.92232e+09 7.14231e+09 7.13763e+09 7.06313e+09 
7.64869e+09 6.97109e+09 7.03385e+09 7.45045e+09 7.49087e+09 7.22348e+09 7.14353e+09 7.02886e+09 7.02241e+09 
6.90819e+09 6.83408e+09 6.80714e+09 6.94611e+09 7.48441e+09 7.59426e+09 6.8046e+09 6.92397e+09 7.27851e+09 
7.21372e+09 7.00578e+09 6.8277e+09 6.80789e+09 6.79571e+09 6.88785e+09 7.19682e+09 6.99122e+09 7.22644e+09 
6.92812e+09 7.11094e+09 6.88849e+09 6.97735e+09 7.04383e+09 7.71476e+09 6.95871e+09 6.9155e+09 7.08124e+09 
7.40495e+09 7.28497e+09 7.15518e+09 6.81731e+09 6.8374e+09 6.89021e+09 6.82102e+09 6.95099e+09 7.06475e+09 
7.17189e+09 7.21949e+09 6.85349e+09 7.00684e+09 6.98997e+09 7.03274e+09 7.02574e+09 6.95468e+09 7.23674e+09 
6.75524e+09 6.85693e+09 6.80962e+09 6.81444e+09 6.893e+09 6.992e+09 6.86148e+09 6.9297e+09 7.52704e+09 
7.37277e+09 7.26532e+09 6.89576e+09 6.8683e+09 7.27137e+09 7.13565e+09 7.13848e+09 7.15534e+09 7.08887e+09 
7.12384e+09 7.13966e+09 7.24183e+09 6.89443e+09 7.27359e+09 7.21371e+09 7.14296e+09 7.07148e+09 6.81474e+09 
6.90983e+09 6.78596e+09 6.95566e+09 6.80378e+09 6.78095e+09 6.95631e+09 7.03241e+09 7.37361e+09 6.62788e+09 
7.27276e+09 6.93959e+09 6.85101e+09 6.70652e+09 6.96493e+09 6.82143e+09 7.09462e+09 6.98151e+09 7.17641e+09 
6.73091e+09 6.96684e+09 6.79714e+09 6.71712e+09 7.31235e+09 6.86937e+09 6.78782e+09 6.68099e+09 6.89875e+09 
7.108e+09 7.19713e+09 6.8067e+09 7.24313e+09 7.04535e+09 6.80318e+09 7.05096e+09 7.2057e+09 6.80998e+09 
7.00917e+09 6.83752e+09 6.85945e+09 6.85574e+09 6.73273e+09 6.86494e+09 6.94797e+09 6.97942e+09 7.19604e+09 
7.07302e+09 6.90297e+09 6.98606e+09 6.92088e+09 7.05978e+09 6.89744e+09 6.89399e+09 6.9644e+09 7.01717e+09 
7.0041e+09 7.01963e+09 6.66919e+09 7.0825e+09 6.77407e+09 6.86814e+09 7.15377e+09 7.33237e+09 6.94721e+09 
7.06692e+09 7.01037e+09 6.70264e+09 7.05232e+09 7.11046e+09 6.83421e+09 6.89602e+09 7.15735e+09 6.77013e+09 
6.95202e+09 6.66187e+09 6.68347e+09 7.0696e+09 7.2146e+09 7.04714e+09 7.41551e+09 7.03137e+09 7.02762e+09 
7.11577e+09 7.11165e+09 7.49165e+09 6.87901e+09 7.2593e+09 7.26887e+09 7.13667e+09 6.97976e+09 7.27266e+09 
6.9043e+09 7.13828e+09 7.38348e+09 7.27656e+09 7.14841e+09 7.00234e+09 6.91564e+09 6.86152e+09 6.85669e+09 
7.06149e+09 6.98075e+09 6.72832e+09 6.82868e+09 6.72242e+09 6.86433e+09 7.07202e+09 6.98745e+09 6.69827e+09 
7.14176e+09 7.2692e+09 6.75443e+09 7.23898e+09 6.91422e+09 6.917e+09 6.80091e+09 7.38576e+09 7.07508e+09 
7.17825e+09 7.16703e+09 7.00222e+09 6.92072e+09 7.81289e+09 6.90568e+09 7.15493e+09 7.20797e+09 7.26661e+09 
6.95103e+09 7.28215e+09 7.15739e+09 7.26544e+09 6.8271e+09 6.84043e+09 6.77565e+09 7.13685e+09 7.02444e+09 
7.553e+09 6.97184e+09 7.07917e+09 7.03032e+09 6.83959e+09 6.7825e+09 6.92049e+09 6.86776e+09 7.36794e+09 
6.99513e+09 7.34185e+09 7.1314e+09 7.21399e+09 6.85001e+09 6.87807e+09 6.99937e+09 7.2507e+09 6.95057e+09 
7.26993e+09 6.92294e+09 6.85352e+09 7.09884e+09 6.80719e+09 7.09493e+09 6.89029e+09 6.64197e+09 6.79343e+09 
6.96278e+09 6.87482e+09 6.71553e+09 7.06852e+09 7.49028e+09 7.1805e+09 6.85941e+09 7.15054e+09 7.41678e+09 
7.1493e+09 7.08648e+09 7.17375e+09 7.11902e+09 7.28931e+09 7.22411e+09 7.08418e+09 6.93075e+09 6.94092e+09 
7.1432e+09 7.06842e+09 7.01003e+09 6.91448e+09 7.17048e+09 6.88122e+09 7.04154e+09 7.21866e+09 6.98056e+09 
7.03955e+09 7.10747e+09 7.19954e+09 7.02631e+09 7.12977e+09 6.90627e+09 6.95716e+09 6.70758e+09 7.15846e+09 
6.96463e+09 6.81645e+09 6.67068e+09 6.75868e+09 6.87346e+09 7.18366e+09 7.6148e+09 7.01434e+09 7.15031e+09 
6.92003e+09 6.97339e+09 7.13915e+09 6.80382e+09 7.13072e+09 7.04891e+09 7.11664e+09 7.35623e+09 7.12056e+09 
6.80073e+09 6.95901e+09 6.97609e+09 7.19781e+09 7.14565e+09 7.01511e+09 7.24363e+09 7.24874e+09 7.07363e+09 
7.07894e+09 6.93616e+09 6.89396e+09 7.00177e+09 7.13312e+09 6.92238e+09 6.84488e+09 6.62493e+09 6.63078e+09 
6.67726e+09 7.35692e+09 7.18315e+09 7.04725e+09 6.94598e+09 7.11513e+09 6.97881e+09 7.1014e+09 6.7645e+09 
7.06047e+09 7.40245e+09 6.87485e+09 6.7734e+09 7.28412e+09 6.90899e+09 6.89315e+09 6.94852e+09 7.15246e+09 
7.34831e+09 7.21897e+09 6.87381e+09 6.96029e+09 7.1586e+09 6.98876e+09 6.57241e+09 6.72856e+09 6.74626e+09 
7.01928e+09 7.10197e+09 6.8578e+09 7.18511e+09 7.08826e+09 7.26226e+09 6.82216e+09 7.40787e+09 6.71652e+09 
6.91568e+09 6.78119e+09 6.97507e+09 7.1821e+09 7.00057e+09 7.14702e+09 6.98261e+09 7.17498e+09 6.96452e+09 
7.19052e+09 7.42155e+09 7.02929e+09 7.18809e+09 7.21107e+09 7.41385e+09 7.17881e+09 6.95599e+09 6.9646e+09 
6.73827e+09 7.24285e+09 7.08358e+09 7.17212e+09 6.8012e+09 7.0298e+09 7.03509e+09 6.87882e+09 6.92379e+09 
6.83725e+09 7.06496e+09 6.96235e+09 7.17577e+09 6.80472e+09 7.1484e+09 6.99802e+09 6.73293e+09 7.04982e+09 
6.83148e+09 7.56873e+09 7.25787e+09 6.97738e+09 6.97841e+09 7.19961e+09 7.00134e+09 7.01378e+09 6.8201e+09 
7.26779e+09 6.90505e+09 7.0261e+09 7.08191e+09 7.19026e+09 6.99685e+09 7.23504e+09 7.11574e+09 6.80975e+09 
6.88295e+09 7.02994e+09 6.94752e+09 7.02957e+09 6.8607e+09 6.93325e+09 7.17399e+09 7.0035e+09 6.93726e+09 
7.00239e+09 7.29286e+09 6.85458e+09 6.83547e+09 7.1333e+09 6.96587e+09 7.04313e+09 7.14802e+09 6.90226e+09 
6.80149e+09 6.97253e+09 6.90854e+09 6.82772e+09 7.04652e+09 7.25643e+09 7.06522e+09 6.9449e+09 6.72767e+09 
7.0793e+09 6.82926e+09 6.82034e+09 7.09786e+09 6.93971e+09 7.0372e+09 7.13508e+09 6.72036e+09 7.15313e+09 
6.62756e+09 7.02617e+09 7.14905e+09 7.13487e+09 6.8287e+09 6.88065e+09 6.85534e+09 6.98392e+09 7.23075e+09 
6.65875e+09 6.94777e+09 7.12465e+09 6.87385e+09 7.11435e+09 7.16794e+09 7.2488e+09 7.15269e+09 7.34186e+09 
7.08232e+09 7.10543e+09 7.07533e+09 6.83918e+09 6.99596e+09 6.88516e+09 7.10201e+09 6.90925e+09 7.21443e+09 
6.70541e+09 7.07286e+09 7.09134e+09 7.29032e+09 7.23453e+09 7.00929e+09 6.83047e+09 6.75157e+09 6.82099e+09 
6.6787e+09 6.69125e+09 6.91722e+09 6.73995e+09 6.95681e+09 7.22679e+09 7.17787e+09 6.90304e+09 6.73005e+09 
7.18787e+09 6.99417e+09 6.90788e+09 6.8657e+09 7.11777e+09 7.10359e+09 7.49292e+09 7.53732e+09 7.24663e+09 
6.90818e+09 6.75161e+09 6.85042e+09 7.04313e+09 7.09232e+09 7.06069e+09 6.85678e+09 7.03582e+09 7.07821e+09 
7.03336e+09 6.86172e+09 6.96878e+09 6.97046e+09 6.78383e+09 7.04876e+09 6.61045e+09 6.72171e+09 7.27993e+09 
7.27086e+09 7.18219e+09 6.79807e+09 6.88192e+09 7.04042e+09 6.93067e+09 7.33512e+09 6.90797e+09 6.7834e+09 
7.16708e+09 7.33428e+09 7.04941e+09 7.38993e+09 6.9534e+09 6.89046e+09 6.85691e+09 7.09514e+09 6.93173e+09 
7.10696e+09 6.86448e+09 6.84486e+09 7.01071e+09 6.91833e+09 7.16214e+09 6.79224e+09 6.76977e+09 6.98863e+09 
6.7969e+09 6.93237e+09 7.03341e+09 6.79713e+09 6.82564e+09 7.00636e+09 6.97831e+09 7.35569e+09 7.08789e+09 
7.02392e+09 6.86913e+09 6.95347e+09 7.06007e+09 6.89488e+09 7.02595e+09 6.87154e+09 6.95865e+09 7.11897e+09 
6.89674e+09 7.01333e+09 7.33768e+09 6.87176e+09 6.99546e+09 7.2673e+09 7.07445e+09 6.97541e+09 6.89011e+09 
6.89583e+09 6.71748e+09 6.7028e+09 6.68469e+09 7.21172e+09 6.95997e+09 7.10411e+09 7.04638e+09 6.73965e+09 
7.02202e+09 6.95053e+09 6.61737e+09 6.56989e+09 6.80532e+09 6.90129e+09 7.31742e+09 6.87457e+09 6.96614e+09 
7.07905e+09 7.03839e+09 6.87125e+09 7.06656e+09 6.94218e+09 7.26858e+09 7.28777e+09 7.00297e+09 6.91059e+09 
6.72579e+09 6.90078e+09 6.81842e+09 6.89287e+09 6.89697e+09 7.01624e+09 7.17657e+09 6.93228e+09 6.74351e+09 
6.85285e+09 7.09897e+09 6.71789e+09 6.88477e+09 6.74378e+09 6.9832e+09 6.84651e+09 6.93787e+09 6.87748e+09 
6.99522e+09 7.18548e+09 7.08033e+09 6.76494e+09 6.91319e+09 6.80853e+09 7.09345e+09 6.97925e+09 6.919e+09 
6.911e+09 7.19209e+09 7.25625e+09 7.03482e+09 7.12723e+09 6.79925e+09 6.80025e+09 6.69356e+09 6.58965e+09 
6.72834e+09 7.00944e+09 7.12844e+09 7.05162e+09 7.03214e+09 7.27412e+09 6.79512e+09 6.55896e+09 6.56805e+09 
6.93264e+09 7.31893e+09 7.11701e+09 6.99114e+09 7.12186e+09 7.05804e+09 6.88253e+09 6.77559e+09 6.68727e+09 
7.27601e+09 7.1842e+09 7.00803e+09 6.85748e+09 7.02114e+09 7.2612e+09 7.51689e+09 7.23214e+09 7.09872e+09 
7.25132e+09 6.80385e+09 7.07053e+09 7.31543e+09 7.04086e+09 7.20733e+09 7.00855e+09 6.77175e+09 6.89679e+09 
6.94471e+09 7.56974e+09 7.3919e+09 6.8173e+09 6.61676e+09 6.81498e+09 6.93675e+09 7.07992e+09 7.15428e+09 
7.37345e+09 6.76643e+09 6.79291e+09 7.10248e+09 7.41114e+09 7.05494e+09 7.0949e+09 7.16227e+09 7.22545e+09 
7.16129e+09 7.09709e+09 7.26036e+09 7.27491e+09 7.33266e+09 6.70454e+09 7.01652e+09 7.09868e+09 7.65486e+09 
7.45885e+09 6.9012e+09 7.16525e+09 6.79744e+09 6.92365e+09 6.78958e+09 7.08732e+09 6.8689e+09 6.86096e+09 