# vtk DataFile Version 3.0
vtk output
ASCII
DATASET RECTILINEAR_GRID
FIELD FieldData 4
MeshName 1 1 string
mesh

CYCLE 1 1 int
10 
TIME 1 1 double
10 
avtOriginalBounds 1 6 double
0 1.95312 0.12207 0.366211 0 1.95312 
DIMENSIONS 33 5 33
X_COORDINATES 33 double
0 0.0610352 0.12207 0.183105 0.244141 0.305176 0.366211 0.427246 0.488281 
0.549316 0.610352 0.671387 0.732422 0.793457 0.854492 0.915527 0.976562 1.0376 
1.09863 1.15967 1.2207 1.28174 1.34277 1.40381 1.46484 1.52588 1.58691 
1.64795 1.70898 1.77002 1.83105 1.89209 1.95312 
Y_COORDINATES 5 double
0.12207 0.183105 0.244141 0.305176 0.366211 
Z_COORDINATES 33 double
0 0.0610352 0.12207 0.183105 0.244141 0.305176 0.366211 0.427246 0.488281 
0.549316 0.610352 0.671387 0.732422 0.793457 0.854492 0.915527 0.976562 1.0376 
1.09863 1.15967 1.2207 1.28174 1.34277 1.40381 1.46484 1.52588 1.58691 
1.64795 1.70898 1.77002 1.83105 1.89209 1.95312 
CELL_DATA 4096
SCALARS simdata double
LOOKUP_TABLE default
7.16956e+09 6.81783e+09 6.72908e+09 6.55711e+09 6.81695e+09 7.09453e+09 6.89856e+09 6.77306e+09 6.87896e+09 
7.01254e+09 6.83097e+09 7.18961e+09 7.00668e+09 6.74324e+09 6.84358e+09 6.91344e+09 6.5881e+09 6.96535e+09 
6.78038e+09 6.76398e+09 6.71096e+09 7.15346e+09 6.91928e+09 6.73614e+09 6.78827e+09 6.74456e+09 6.65945e+09 
6.54878e+09 6.73246e+09 7.07095e+09 7.19388e+09 7.09444e+09 6.62241e+09 6.9751e+09 6.66815e+09 6.91041e+09 
6.83252e+09 7.55827e+09 7.08464e+09 6.72268e+09 7.03986e+09 7.52855e+09 7.0679e+09 6.91335e+09 6.91402e+09 
7.03027e+09 7.20644e+09 7.21259e+09 6.7427e+09 6.69186e+09 6.70393e+09 6.76025e+09 6.71288e+09 6.99133e+09 
6.96377e+09 6.94544e+09 6.73255e+09 6.75336e+09 6.58781e+09 6.6957e+09 6.82658e+09 6.90301e+09 6.97392e+09 
6.92804e+09 7.04032e+09 6.7214e+09 6.88836e+09 6.69427e+09 6.97577e+09 7.05783e+09 7.08051e+09 6.89256e+09 
7.16819e+09 7.08728e+09 6.93707e+09 7.48604e+09 6.99827e+09 6.62701e+09 6.93227e+09 6.82716e+09 7.02548e+09 
6.82397e+09 6.88266e+09 6.68545e+09 7.02559e+09 6.7921e+09 6.66186e+09 6.91992e+09 6.90259e+09 6.65427e+09 
6.59869e+09 6.50385e+09 6.69021e+09 7.07184e+09 7.24518e+09 7.23888e+09 6.76586e+09 6.72344e+09 6.63134e+09 
6.72485e+09 6.77102e+09 6.97579e+09 6.91856e+09 6.99827e+09 6.85954e+09 7.01935e+09 7.0961e+09 7.14717e+09 
6.87864e+09 6.67077e+09 6.80583e+09 6.78422e+09 6.89093e+09 6.81738e+09 6.80075e+09 6.77429e+09 6.83381e+09 
7.11813e+09 6.78212e+09 7.01872e+09 6.60157e+09 7.32568e+09 6.63576e+09 6.73691e+09 6.69366e+09 6.72526e+09 
6.87211e+09 7.07803e+09 6.99956e+09 6.65428e+09 6.67354e+09 6.73324e+09 6.73987e+09 7.50987e+09 6.84112e+09 
7.10888e+09 7.20925e+09 6.96341e+09 6.99899e+09 6.97941e+09 6.72785e+09 6.75338e+09 6.89662e+09 6.58552e+09 
6.73288e+09 7.21427e+09 6.80084e+09 6.89031e+09 6.93196e+09 6.71279e+09 6.71983e+09 6.6515e+09 6.83982e+09 
6.785e+09 6.76905e+09 6.81683e+09 6.72977e+09 7.17301e+09 6.81809e+09 6.92331e+09 6.83304e+09 6.93744e+09 
6.58062e+09 6.92269e+09 6.79993e+09 7.65672e+09 7.04365e+09 6.91404e+09 6.9473e+09 7.15903e+09 6.9958e+09 
7.02961e+09 6.56726e+09 6.70413e+09 7.01255e+09 6.71631e+09 6.71074e+09 6.674e+09 6.68427e+09 6.69297e+09 
6.66805e+09 6.69784e+09 7.10381e+09 6.68726e+09 6.46996e+09 6.75081e+09 6.87242e+09 6.49202e+09 6.63795e+09 
6.7164e+09 6.98034e+09 6.94176e+09 7.107e+09 6.79314e+09 6.76736e+09 6.88038e+09 6.91249e+09 7.03579e+09 
7.19686e+09 7.05219e+09 7.12158e+09 7.04625e+09 6.93171e+09 7.12326e+09 6.85005e+09 6.76411e+09 6.49511e+09 
6.60609e+09 7.00871e+09 7.10315e+09 6.64516e+09 6.68456e+09 6.85989e+09 6.82334e+09 6.76749e+09 6.85225e+09 
6.82762e+09 6.60192e+09 6.49298e+09 6.44634e+09 6.67738e+09 6.62437e+09 6.69482e+09 6.98234e+09 6.84333e+09 
6.74173e+09 6.77639e+09 6.74103e+09 6.89125e+09 6.82885e+09 7.11164e+09 6.89077e+09 6.7524e+09 6.89456e+09 
7.24711e+09 6.74281e+09 6.75092e+09 6.71461e+09 6.6489e+09 6.62011e+09 6.68816e+09 7.26148e+09 6.87081e+09 
6.80294e+09 6.90251e+09 7.04001e+09 7.06878e+09 6.76454e+09 6.85161e+09 6.94499e+09 6.61523e+09 6.61731e+09 
6.69377e+09 6.65085e+09 6.9125e+09 7.03579e+09 6.75461e+09 6.7675e+09 6.95254e+09 7.00137e+09 7.02468e+09 
6.93264e+09 7.05664e+09 6.92654e+09 6.97619e+09 7.02955e+09 6.78381e+09 6.87211e+09 6.83541e+09 7.06877e+09 
6.60674e+09 6.68785e+09 6.88237e+09 6.61446e+09 6.94034e+09 7.10249e+09 6.87225e+09 7.11522e+09 7.03947e+09 
6.93601e+09 6.97322e+09 6.6198e+09 6.74661e+09 6.77313e+09 6.93515e+09 6.9027e+09 7.01326e+09 6.91817e+09 
6.58473e+09 6.70067e+09 6.75975e+09 7.12667e+09 6.8052e+09 6.85684e+09 7.03358e+09 7.07292e+09 7.09368e+09 
6.71541e+09 6.53324e+09 6.75215e+09 6.66956e+09 6.68968e+09 6.82489e+09 6.94528e+09 7.01698e+09 6.91584e+09 
6.86388e+09 6.92038e+09 6.87311e+09 6.72983e+09 6.81845e+09 6.83629e+09 6.91773e+09 6.58102e+09 6.64844e+09 
6.88711e+09 7.00475e+09 6.7117e+09 6.94716e+09 6.64386e+09 6.87519e+09 6.62961e+09 6.90741e+09 6.93888e+09 
7.05406e+09 7.00456e+09 6.92745e+09 7.42017e+09 7.1274e+09 6.84313e+09 6.87401e+09 7.13884e+09 6.74159e+09 
6.602e+09 6.72763e+09 6.77485e+09 6.60062e+09 7.00498e+09 6.79938e+09 6.84198e+09 6.91639e+09 6.82823e+09 
6.94922e+09 7.05849e+09 6.62873e+09 6.63833e+09 6.68447e+09 6.62951e+09 6.74045e+09 7.06263e+09 6.79601e+09 
6.90892e+09 7.01435e+09 6.69349e+09 6.61681e+09 7.08662e+09 6.98377e+09 7.17488e+09 6.91723e+09 7.24664e+09 
7.39846e+09 7.2541e+09 7.1851e+09 6.9576e+09 6.7563e+09 7.11107e+09 6.72821e+09 6.84481e+09 6.703e+09 
6.76885e+09 6.82035e+09 6.88935e+09 6.9571e+09 6.91741e+09 7.02235e+09 6.98522e+09 6.68667e+09 6.8376e+09 
6.78983e+09 6.72097e+09 6.65924e+09 6.86343e+09 7.01097e+09 6.97296e+09 7.03853e+09 6.80292e+09 6.93384e+09 
7.03794e+09 7.19531e+09 7.06796e+09 7.14268e+09 6.85813e+09 6.80047e+09 6.85731e+09 6.7416e+09 6.83425e+09 
6.69897e+09 6.80182e+09 6.70865e+09 6.68808e+09 6.71101e+09 7.11715e+09 6.81045e+09 6.67356e+09 6.78634e+09 
6.96584e+09 6.75121e+09 6.58507e+09 6.5504e+09 6.56521e+09 6.8299e+09 6.92604e+09 7.04476e+09 6.78161e+09 
7.01266e+09 7.17502e+09 6.78038e+09 7.06953e+09 6.78222e+09 6.81317e+09 6.84788e+09 7.17666e+09 7.12409e+09 
7.452e+09 6.83842e+09 6.76064e+09 6.88955e+09 6.73746e+09 6.78854e+09 6.80424e+09 6.86102e+09 6.44825e+09 
7.25784e+09 6.88656e+09 6.76777e+09 6.61592e+09 6.70688e+09 6.8467e+09 6.67975e+09 6.80581e+09 7.00478e+09 
6.59332e+09 6.70956e+09 6.71015e+09 6.82888e+09 6.85923e+09 6.79634e+09 6.71294e+09 6.84089e+09 6.99974e+09 
6.95358e+09 6.74951e+09 6.82991e+09 6.94805e+09 6.9907e+09 6.94411e+09 7.54511e+09 7.15264e+09 6.80184e+09 
6.95011e+09 6.65897e+09 6.5483e+09 6.67965e+09 6.81191e+09 6.71276e+09 6.93482e+09 6.9155e+09 6.75506e+09 
6.80539e+09 7.15697e+09 6.79777e+09 6.97989e+09 7.13981e+09 6.56241e+09 6.70842e+09 7.04481e+09 7.04586e+09 
7.00954e+09 7.13317e+09 7.04125e+09 6.91128e+09 6.78423e+09 6.82036e+09 7.03555e+09 6.99186e+09 6.92973e+09 
6.98652e+09 6.98294e+09 7.36599e+09 7.2597e+09 6.75321e+09 6.90882e+09 6.59789e+09 6.92558e+09 6.75541e+09 
6.92222e+09 6.90915e+09 6.79623e+09 6.75307e+09 6.76874e+09 6.91334e+09 6.6478e+09 6.84374e+09 7.21796e+09 
7.09882e+09 7.26024e+09 6.91193e+09 6.99097e+09 6.88139e+09 7.18503e+09 7.20113e+09 7.02721e+09 6.80854e+09 
7.11163e+09 6.69675e+09 6.8339e+09 6.95106e+09 6.9047e+09 6.96414e+09 7.14131e+09 6.70562e+09 6.80897e+09 
6.94593e+09 6.88417e+09 6.54169e+09 6.85828e+09 6.51939e+09 6.62624e+09 6.87983e+09 6.65445e+09 6.82282e+09 
6.76018e+09 6.7096e+09 6.82536e+09 6.73399e+09 6.82163e+09 6.77112e+09 6.81823e+09 7.17377e+09 6.75377e+09 
6.71064e+09 6.89486e+09 6.77457e+09 6.87429e+09 6.78265e+09 6.8526e+09 6.75587e+09 6.6656e+09 6.93004e+09 
7.10893e+09 7.06634e+09 6.89881e+09 7.0313e+09 7.33865e+09 7.0605e+09 6.73849e+09 6.80003e+09 6.50136e+09 
6.50241e+09 6.61345e+09 7.14523e+09 6.97079e+09 6.66475e+09 6.72024e+09 7.05125e+09 6.71277e+09 7.21902e+09 
7.04267e+09 6.56693e+09 6.8867e+09 6.87581e+09 6.79752e+09 6.9873e+09 6.91835e+09 6.80063e+09 6.94238e+09 
7.24214e+09 6.97849e+09 7.12255e+09 6.98239e+09 6.86226e+09 6.68849e+09 6.84737e+09 6.99995e+09 6.96349e+09 
7.12751e+09 6.85489e+09 6.84935e+09 6.62125e+09 6.54921e+09 6.56571e+09 6.60827e+09 6.90169e+09 6.79918e+09 
6.85504e+09 6.77176e+09 6.93944e+09 6.69026e+09 6.93576e+09 6.85489e+09 7.02893e+09 6.85813e+09 7.14955e+09 
7.30102e+09 6.92711e+09 7.10817e+09 7.29752e+09 6.97322e+09 6.95451e+09 6.93455e+09 6.82623e+09 6.64889e+09 
6.9806e+09 6.66814e+09 7.04274e+09 7.02352e+09 7.09793e+09 7.24858e+09 7.07127e+09 6.88895e+09 6.79748e+09 
6.51008e+09 6.54142e+09 6.53711e+09 6.61802e+09 7.00655e+09 6.9692e+09 6.76421e+09 6.66011e+09 6.8401e+09 
6.79188e+09 6.77395e+09 7.1835e+09 7.03036e+09 6.98961e+09 7.11548e+09 6.83004e+09 7.141e+09 7.35424e+09 
7.06039e+09 6.95313e+09 6.77554e+09 6.7789e+09 7.064e+09 6.95651e+09 6.77054e+09 6.85483e+09 7.09306e+09 
6.80704e+09 7.02024e+09 7.21805e+09 6.75378e+09 6.76334e+09 6.61785e+09 6.75854e+09 6.93114e+09 6.93998e+09 
6.85967e+09 7.01679e+09 6.95581e+09 7.00973e+09 6.71198e+09 6.80144e+09 6.798e+09 7.11385e+09 7.08504e+09 
6.73621e+09 6.90188e+09 6.80327e+09 6.8303e+09 6.94789e+09 7.09454e+09 6.86317e+09 6.89905e+09 6.85979e+09 
6.93639e+09 7.13105e+09 6.75183e+09 7.00135e+09 7.06246e+09 7.16499e+09 6.89889e+09 7.22104e+09 7.00392e+09 
7.14889e+09 6.60766e+09 6.63538e+09 6.70367e+09 6.692e+09 6.94366e+09 7.08716e+09 7.38573e+09 7.13141e+09 
6.92103e+09 6.80606e+09 6.702e+09 7.04539e+09 6.99772e+09 6.86082e+09 6.95409e+09 7.09103e+09 6.86483e+09 
6.81423e+09 7.12302e+09 6.91008e+09 7.03176e+09 7.10373e+09 7.31444e+09 7.00537e+09 6.82812e+09 7.01655e+09 
7.00406e+09 6.91235e+09 6.93528e+09 6.67524e+09 6.75502e+09 6.99795e+09 6.7683e+09 6.57921e+09 6.75177e+09 
6.67965e+09 6.83359e+09 6.72626e+09 6.69689e+09 6.84758e+09 6.67387e+09 6.68623e+09 6.83055e+09 7.05855e+09 
6.91915e+09 7.14919e+09 7.16333e+09 6.89179e+09 7.02261e+09 7.10772e+09 6.78346e+09 6.78533e+09 6.85909e+09 
6.77024e+09 6.63753e+09 6.83686e+09 6.76657e+09 6.6211e+09 6.69047e+09 6.79597e+09 6.77144e+09 7.07833e+09 
6.80306e+09 6.79194e+09 6.48199e+09 6.72226e+09 6.64719e+09 6.70175e+09 6.68124e+09 6.53471e+09 6.76621e+09 
6.78365e+09 7.01532e+09 6.73228e+09 6.91159e+09 7.07995e+09 7.31393e+09 7.15919e+09 7.20779e+09 7.17087e+09 
7.00056e+09 7.50363e+09 6.88041e+09 7.16079e+09 6.72359e+09 6.95005e+09 6.946e+09 7.03468e+09 6.90971e+09 
6.92689e+09 6.71814e+09 6.81485e+09 6.98245e+09 6.96492e+09 7.15391e+09 7.15249e+09 6.80715e+09 6.68377e+09 
6.89896e+09 6.78395e+09 6.75439e+09 6.6803e+09 6.98682e+09 6.6177e+09 7.1059e+09 6.84663e+09 6.63564e+09 
6.91561e+09 7.04109e+09 6.69515e+09 7.10145e+09 7.09234e+09 6.95686e+09 7.29695e+09 7.23985e+09 6.78199e+09 
6.91298e+09 7.19324e+09 7.03993e+09 6.87963e+09 7.28849e+09 7.18732e+09 6.80209e+09 7.00322e+09 7.10294e+09 
6.96112e+09 6.80085e+09 6.90393e+09 6.75941e+09 6.79014e+09 6.84923e+09 6.601e+09 6.71036e+09 6.866e+09 
7.42404e+09 7.08597e+09 6.83438e+09 6.55688e+09 6.82991e+09 7.12021e+09 6.82728e+09 6.88517e+09 6.73504e+09 
7.14703e+09 7.69017e+09 7.35275e+09 6.91663e+09 6.84275e+09 6.75775e+09 6.70212e+09 7.08842e+09 6.85207e+09 
6.79186e+09 6.89257e+09 6.93487e+09 7.13631e+09 7.05893e+09 6.97112e+09 6.73186e+09 6.98884e+09 6.85862e+09 
6.93569e+09 6.55516e+09 6.8441e+09 6.54608e+09 7.32783e+09 6.7342e+09 7.04329e+09 6.94193e+09 6.77872e+09 
6.6424e+09 6.91308e+09 6.77366e+09 6.82805e+09 6.73246e+09 6.96616e+09 7.44674e+09 7.52519e+09 6.97916e+09 
7.02112e+09 6.85453e+09 7.0874e+09 6.8594e+09 6.92264e+09 7.0606e+09 6.78526e+09 6.56289e+09 6.62616e+09 
6.69595e+09 6.71229e+09 6.69222e+09 7.07087e+09 6.93626e+09 6.805e+09 6.7839e+09 6.7216e+09 7.01884e+09 
6.54048e+09 6.4493e+09 6.6099e+09 6.67963e+09 6.90167e+09 6.89458e+09 6.89107e+09 6.90889e+09 6.78508e+09 
7.1461e+09 7.13362e+09 7.1236e+09 7.2528e+09 7.08814e+09 6.75519e+09 7.22729e+09 6.84982e+09 7.13419e+09 
7.40271e+09 6.99135e+09 6.86453e+09 7.07706e+09 7.07772e+09 6.83148e+09 6.66181e+09 6.92006e+09 6.64669e+09 
6.7722e+09 6.77842e+09 6.85902e+09 6.75478e+09 6.53887e+09 6.59809e+09 7.291e+09 6.82272e+09 6.85191e+09 
7.00042e+09 6.90908e+09 7.05907e+09 7.2153e+09 6.84184e+09 7.04339e+09 7.03433e+09 6.9531e+09 6.90872e+09 
6.90247e+09 7.01496e+09 7.08779e+09 6.96702e+09 6.78375e+09 6.91679e+09 6.69286e+09 7.36108e+09 7.00884e+09 
7.02255e+09 6.84084e+09 6.63681e+09 6.89231e+09 6.61435e+09 6.61076e+09 6.74383e+09 6.58847e+09 6.57602e+09 
6.62951e+09 6.72674e+09 6.75977e+09 6.92397e+09 6.94231e+09 6.69491e+09 6.81198e+09 6.95625e+09 7.27009e+09 
6.86628e+09 6.79178e+09 7.03332e+09 6.84941e+09 6.92746e+09 6.91211e+09 6.82044e+09 6.7013e+09 6.72026e+09 
7.02415e+09 6.93424e+09 6.80878e+09 6.94285e+09 7.28617e+09 6.722e+09 6.84392e+09 6.87915e+09 6.58546e+09 
6.8961e+09 7.05091e+09 6.80068e+09 6.74304e+09 6.77396e+09 6.69894e+09 6.65642e+09 6.67004e+09 7.10456e+09 
7.21554e+09 6.74505e+09 6.65134e+09 7.04446e+09 6.72253e+09 6.70606e+09 6.65586e+09 6.64766e+09 7.04467e+09 
6.82535e+09 6.94225e+09 6.93653e+09 7.28192e+09 6.90653e+09 6.83005e+09 6.97171e+09 7.20875e+09 6.73884e+09 
6.83457e+09 6.66105e+09 6.8512e+09 6.63131e+09 6.98489e+09 6.9014e+09 6.85606e+09 6.74908e+09 6.76863e+09 
6.97271e+09 6.77541e+09 6.62192e+09 6.58398e+09 6.68942e+09 6.82079e+09 6.63187e+09 6.91107e+09 6.99158e+09 
6.83161e+09 6.72649e+09 6.8386e+09 6.73497e+09 6.89276e+09 6.76662e+09 7.02701e+09 6.94842e+09 6.78865e+09 
6.83702e+09 7.12156e+09 7.24786e+09 6.89966e+09 6.97084e+09 6.94245e+09 7.20347e+09 6.96085e+09 7.23038e+09 
6.84304e+09 6.94083e+09 6.61284e+09 6.65761e+09 6.7027e+09 6.66971e+09 6.7734e+09 6.77064e+09 7.07435e+09 
6.85591e+09 6.9597e+09 7.03074e+09 7.4223e+09 7.52411e+09 7.19892e+09 6.84563e+09 7.01739e+09 6.95971e+09 
7.07897e+09 7.01799e+09 7.00578e+09 7.00288e+09 6.73179e+09 7.08885e+09 7.03146e+09 6.8386e+09 6.77099e+09 
7.33069e+09 7.09461e+09 7.09211e+09 7.07951e+09 6.74999e+09 6.68109e+09 6.535e+09 6.69652e+09 6.62497e+09 
6.53534e+09 6.51043e+09 6.7417e+09 6.87568e+09 6.80785e+09 6.95936e+09 6.84176e+09 6.66989e+09 7.3011e+09 
7.23026e+09 6.62619e+09 7.00419e+09 7.1142e+09 7.01583e+09 6.61943e+09 6.92569e+09 7.08942e+09 7.03332e+09 
6.87935e+09 6.99233e+09 6.89495e+09 6.79777e+09 6.93885e+09 7.33038e+09 7.0065e+09 6.80878e+09 6.7224e+09 
6.84722e+09 7.14818e+09 6.68341e+09 6.83638e+09 6.7317e+09 6.57499e+09 6.54845e+09 6.84138e+09 6.91613e+09 
6.48082e+09 6.79031e+09 6.74331e+09 6.90205e+09 7.08731e+09 6.81728e+09 6.7912e+09 6.57863e+09 6.71686e+09 
6.90086e+09 6.69611e+09 6.70104e+09 6.90643e+09 7.04906e+09 6.96441e+09 6.86579e+09 6.98128e+09 6.76622e+09 
6.8894e+09 7.30158e+09 6.99278e+09 6.70072e+09 6.93662e+09 6.64474e+09 6.76332e+09 6.98409e+09 6.91386e+09 
6.85678e+09 6.59773e+09 6.91911e+09 6.65487e+09 6.90967e+09 6.65251e+09 6.83135e+09 6.75788e+09 6.861e+09 
6.9295e+09 6.77749e+09 6.78931e+09 6.77033e+09 6.84101e+09 7.09135e+09 6.67305e+09 7.43795e+09 6.99673e+09 
6.83286e+09 7.15557e+09 6.92635e+09 6.90593e+09 7.16626e+09 7.03956e+09 6.75723e+09 6.84214e+09 7.0045e+09 
6.77898e+09 6.92938e+09 6.89319e+09 6.87804e+09 6.6275e+09 6.8754e+09 6.61178e+09 6.65669e+09 6.62903e+09 
6.9264e+09 6.98432e+09 6.89684e+09 7.12007e+09 7.47553e+09 6.99608e+09 7.63782e+09 7.04407e+09 6.75879e+09 
6.94652e+09 7.04169e+09 7.85978e+09 7.62262e+09 7.29845e+09 6.99778e+09 6.86983e+09 7.17458e+09 6.99772e+09 
7.03157e+09 7.46862e+09 7.16014e+09 7.08027e+09 6.74938e+09 7.09327e+09 6.90159e+09 6.69327e+09 6.68178e+09 
6.65037e+09 6.52579e+09 6.85713e+09 6.67784e+09 6.74917e+09 6.9942e+09 6.88573e+09 7.00674e+09 7.05998e+09 
6.99594e+09 7.073e+09 7.36525e+09 7.09798e+09 6.81404e+09 7.06135e+09 7.24063e+09 7.08313e+09 7.16759e+09 
7.36919e+09 7.25345e+09 6.99463e+09 7.3686e+09 7.43736e+09 6.9995e+09 7.05173e+09 6.93824e+09 7.44356e+09 
6.76665e+09 6.74893e+09 6.61522e+09 6.8154e+09 6.63086e+09 6.77581e+09 6.73007e+09 6.84673e+09 6.78333e+09 
6.88087e+09 6.89114e+09 6.69489e+09 6.81933e+09 6.93332e+09 6.71673e+09 6.99835e+09 6.94783e+09 6.82692e+09 
6.81832e+09 6.92245e+09 6.84404e+09 6.94256e+09 7.3172e+09 7.43181e+09 7.22514e+09 6.99273e+09 7.11545e+09 
7.20998e+09 6.90058e+09 6.96755e+09 7.0578e+09 7.08204e+09 6.93738e+09 6.78984e+09 7.11947e+09 6.9746e+09 
6.65139e+09 6.88078e+09 6.87997e+09 6.91704e+09 6.68724e+09 6.89088e+09 7.09959e+09 6.64771e+09 7.00916e+09 
6.84633e+09 6.88662e+09 6.71775e+09 6.98172e+09 6.75453e+09 7.09949e+09 7.09816e+09 7.1513e+09 7.11264e+09 
6.88374e+09 7.0028e+09 7.2165e+09 7.30466e+09 6.87144e+09 6.90264e+09 6.94507e+09 7.06825e+09 6.67396e+09 
7.03599e+09 6.78201e+09 6.79727e+09 7.07639e+09 7.24939e+09 6.80872e+09 7.05657e+09 6.95691e+09 7.09646e+09 
6.85121e+09 6.87256e+09 6.60494e+09 6.75709e+09 6.76426e+09 7.15508e+09 7.34133e+09 6.85467e+09 6.88446e+09 
6.93496e+09 6.67015e+09 7.60386e+09 7.30543e+09 7.1649e+09 7.46413e+09 6.86358e+09 6.9074e+09 6.93548e+09 
6.95391e+09 6.96003e+09 6.72011e+09 6.64951e+09 6.72214e+09 6.79691e+09 6.89044e+09 6.97773e+09 6.77006e+09 
6.65858e+09 6.77446e+09 6.91591e+09 6.83518e+09 6.82104e+09 6.83685e+09 6.81794e+09 6.75318e+09 7.00053e+09 
6.72765e+09 7.07827e+09 6.96764e+09 6.82366e+09 6.66701e+09 6.94091e+09 7.09458e+09 6.93706e+09 7.18434e+09 
7.40211e+09 6.75385e+09 6.80481e+09 6.83432e+09 6.95474e+09 6.93341e+09 7.31358e+09 7.2498e+09 6.92243e+09 
6.84644e+09 6.88177e+09 7.16086e+09 7.3701e+09 6.92513e+09 6.79382e+09 6.63348e+09 6.77221e+09 6.89954e+09 
6.73249e+09 6.85901e+09 7.09826e+09 6.90451e+09 6.7875e+09 6.93359e+09 6.82536e+09 6.86457e+09 7.01966e+09 
6.72438e+09 6.77909e+09 6.81005e+09 7.01886e+09 6.9291e+09 7.04848e+09 7.13567e+09 6.83227e+09 6.83201e+09 
6.87575e+09 7.1551e+09 7.08272e+09 7.16368e+09 6.82812e+09 7.0575e+09 7.07925e+09 6.71749e+09 6.85012e+09 
6.92196e+09 6.87339e+09 6.9336e+09 6.83122e+09 6.76286e+09 7.04623e+09 6.69556e+09 7.11775e+09 7.07907e+09 
6.92869e+09 7.05171e+09 7.00895e+09 6.96395e+09 6.88525e+09 6.73127e+09 6.76781e+09 6.87886e+09 6.88654e+09 
7.32265e+09 7.56465e+09 7.15861e+09 6.99202e+09 7.36509e+09 7.43302e+09 7.19253e+09 6.83115e+09 6.89296e+09 
6.96092e+09 7.06116e+09 6.75544e+09 6.91345e+09 7.02773e+09 6.76084e+09 6.82746e+09 6.98699e+09 6.78815e+09 
6.66012e+09 7.0554e+09 6.69785e+09 6.81567e+09 6.77506e+09 6.83356e+09 7.17732e+09 7.41287e+09 7.03961e+09 
7.57919e+09 6.94604e+09 7.35202e+09 6.90034e+09 7.00295e+09 7.29329e+09 7.08115e+09 6.71539e+09 6.76547e+09 
7.16209e+09 6.93629e+09 6.59037e+09 6.90622e+09 7.12535e+09 6.89103e+09 6.81273e+09 6.88256e+09 7.14259e+09 
7.13534e+09 6.96172e+09 6.87148e+09 6.6943e+09 6.86589e+09 6.75464e+09 6.88615e+09 6.65598e+09 6.83775e+09 
6.85891e+09 7.01121e+09 7.09631e+09 7.10949e+09 7.2465e+09 7.35055e+09 6.77645e+09 6.93011e+09 6.95525e+09 
6.92019e+09 6.89337e+09 6.70011e+09 7.00955e+09 6.82712e+09 7.34412e+09 6.74893e+09 7.26173e+09 6.82361e+09 
7.19445e+09 7.10703e+09 6.8988e+09 6.86861e+09 7.14458e+09 6.96059e+09 7.13729e+09 6.9517e+09 6.77243e+09 
6.85268e+09 6.65857e+09 6.8153e+09 6.88182e+09 7.09274e+09 7.27407e+09 6.81617e+09 7.16455e+09 6.94434e+09 
7.07781e+09 6.95828e+09 6.69202e+09 6.84191e+09 7.03631e+09 6.8304e+09 6.90847e+09 6.94526e+09 6.97033e+09 
7.0977e+09 6.79676e+09 6.97951e+09 7.08423e+09 7.36158e+09 7.21901e+09 6.74555e+09 6.68956e+09 6.82535e+09 
6.9144e+09 6.86929e+09 7.07225e+09 6.62726e+09 6.66477e+09 6.89665e+09 6.92199e+09 6.91676e+09 6.97032e+09 
6.88279e+09 7.22442e+09 7.21931e+09 7.28727e+09 6.84922e+09 6.6908e+09 6.72259e+09 6.72321e+09 6.88728e+09 
6.86238e+09 6.80787e+09 7.03663e+09 6.7929e+09 7.13684e+09 6.68803e+09 6.94437e+09 7.131e+09 7.54204e+09 
6.91054e+09 6.8291e+09 6.88178e+09 6.87031e+09 6.90609e+09 6.98269e+09 6.9341e+09 6.89688e+09 6.8779e+09 
6.91704e+09 6.77555e+09 6.89622e+09 6.69468e+09 6.5915e+09 6.66502e+09 6.83487e+09 7.24488e+09 7.23609e+09 
7.19498e+09 6.73814e+09 7.08808e+09 7.51829e+09 7.36822e+09 7.50452e+09 7.35969e+09 7.32049e+09 6.85321e+09 
6.84311e+09 6.90204e+09 7.03224e+09 6.6756e+09 6.72896e+09 6.92699e+09 7.35857e+09 7.14405e+09 7.26482e+09 
7.02897e+09 6.8717e+09 6.95918e+09 7.21233e+09 6.88703e+09 6.60522e+09 6.71848e+09 6.52484e+09 6.63518e+09 
6.92849e+09 6.66732e+09 6.84526e+09 7.06761e+09 7.08237e+09 7.13752e+09 7.20769e+09 7.05536e+09 7.02844e+09 
7.06278e+09 7.36508e+09 7.15744e+09 7.1694e+09 6.87122e+09 7.02931e+09 7.10307e+09 6.76734e+09 6.79938e+09 
6.80155e+09 6.80619e+09 7.14793e+09 7.41031e+09 7.38623e+09 7.22203e+09 6.87717e+09 6.89872e+09 6.97053e+09 
6.82984e+09 6.80124e+09 6.8687e+09 6.70163e+09 6.7027e+09 6.92374e+09 6.85248e+09 7.10223e+09 6.95531e+09 
7.12012e+09 7.12734e+09 7.40144e+09 6.81596e+09 7.24794e+09 6.69038e+09 6.87904e+09 7.0635e+09 7.03416e+09 
6.92797e+09 6.95852e+09 7.23241e+09 6.70502e+09 6.65683e+09 7.04141e+09 7.06583e+09 7.14921e+09 6.86099e+09 
6.74574e+09 7.01614e+09 6.86166e+09 6.97519e+09 7.19425e+09 6.68073e+09 6.90556e+09 6.79259e+09 6.86229e+09 
6.74786e+09 6.80654e+09 6.77495e+09 6.98936e+09 7.03871e+09 6.94095e+09 6.97808e+09 6.6981e+09 7.07591e+09 
6.91227e+09 6.7125e+09 6.7811e+09 7.43347e+09 7.04317e+09 6.90046e+09 6.91955e+09 6.82129e+09 6.90513e+09 
6.89471e+09 7.11652e+09 7.19067e+09 7.01443e+09 7.173e+09 6.67285e+09 7.02754e+09 6.90815e+09 6.73879e+09 
6.65572e+09 6.77872e+09 6.63784e+09 6.9173e+09 7.09282e+09 6.99802e+09 7.0024e+09 6.60678e+09 6.89011e+09 
7.17458e+09 6.95005e+09 6.70483e+09 7.07249e+09 6.93308e+09 7.05247e+09 6.99142e+09 6.94439e+09 7.10854e+09 
6.78425e+09 7.32581e+09 6.96025e+09 6.93251e+09 6.98054e+09 6.92388e+09 6.75473e+09 6.71102e+09 6.97394e+09 
7.09337e+09 6.88732e+09 7.05507e+09 6.83772e+09 6.70072e+09 7.06536e+09 6.8529e+09 6.71925e+09 6.71685e+09 
6.6487e+09 6.88614e+09 6.8459e+09 6.55627e+09 7.07754e+09 7.11953e+09 7.15413e+09 6.83664e+09 6.97264e+09 
7.11915e+09 7.32737e+09 7.29516e+09 6.82285e+09 6.9072e+09 6.91767e+09 7.00975e+09 7.00301e+09 6.82444e+09 
6.89776e+09 7.08239e+09 6.76988e+09 6.76201e+09 6.96334e+09 7.43101e+09 7.02502e+09 7.08414e+09 6.92221e+09 
6.69442e+09 6.79059e+09 6.89512e+09 6.8092e+09 6.72806e+09 6.48578e+09 6.57431e+09 6.69698e+09 7.13112e+09 
6.96123e+09 6.9598e+09 6.7743e+09 6.72685e+09 6.80939e+09 7.1926e+09 7.3193e+09 6.78619e+09 6.95868e+09 
7.11572e+09 7.1411e+09 6.84645e+09 6.94533e+09 7.07562e+09 6.96169e+09 6.81988e+09 6.67793e+09 6.86157e+09 
7.01376e+09 7.04871e+09 7.03388e+09 6.8994e+09 7.06748e+09 6.70055e+09 6.80682e+09 6.83263e+09 6.85976e+09 
7.08113e+09 6.73955e+09 6.68603e+09 6.68957e+09 6.49808e+09 7.23941e+09 6.95676e+09 7.04081e+09 7.04556e+09 
6.93411e+09 6.88435e+09 6.7712e+09 6.72893e+09 6.57435e+09 7.09849e+09 6.91517e+09 6.81186e+09 6.7238e+09 
6.86354e+09 7.2645e+09 6.88069e+09 7.2181e+09 7.40359e+09 6.68681e+09 6.97225e+09 7.27783e+09 6.88398e+09 
6.83342e+09 6.71686e+09 7.0227e+09 7.07202e+09 6.90668e+09 6.82947e+09 6.67564e+09 6.57197e+09 6.74303e+09 
6.62411e+09 6.73543e+09 7.16535e+09 7.15799e+09 6.91743e+09 6.73852e+09 6.8134e+09 7.12739e+09 7.10394e+09 
6.92229e+09 6.67055e+09 6.717e+09 6.79529e+09 6.85894e+09 6.96837e+09 7.02417e+09 6.83367e+09 6.72356e+09 
7.30082e+09 7.14227e+09 6.77653e+09 6.9068e+09 6.68551e+09 6.86804e+09 6.76107e+09 6.75643e+09 6.90053e+09 
6.68601e+09 6.51594e+09 6.95543e+09 7.1285e+09 6.72171e+09 6.80967e+09 6.91078e+09 7.3063e+09 6.9353e+09 
6.84646e+09 7.35823e+09 7.35066e+09 7.0472e+09 7.37717e+09 6.97648e+09 6.80026e+09 6.86977e+09 6.93658e+09 
6.81837e+09 7.10229e+09 6.68429e+09 7.05151e+09 6.67415e+09 7.01847e+09 6.87611e+09 6.75313e+09 7.01521e+09 
6.98286e+09 7.04544e+09 6.91484e+09 6.86311e+09 6.91509e+09 6.7339e+09 6.7489e+09 7.079e+09 7.16913e+09 
6.68352e+09 6.67999e+09 6.82401e+09 6.6715e+09 6.71889e+09 6.81982e+09 6.74563e+09 6.96763e+09 7.10186e+09 
7.13322e+09 6.90785e+09 7.07604e+09 6.82638e+09 6.89464e+09 6.64724e+09 6.831e+09 6.92359e+09 6.75297e+09 
6.76341e+09 6.87587e+09 7.1692e+09 7.24303e+09 6.82139e+09 6.99877e+09 6.62396e+09 7.05569e+09 6.82617e+09 
6.83438e+09 6.83581e+09 6.9151e+09 6.66408e+09 7.05576e+09 6.87586e+09 6.70542e+09 6.92069e+09 6.9218e+09 
6.68353e+09 6.84331e+09 7.03122e+09 6.90424e+09 6.83376e+09 6.69249e+09 6.78122e+09 6.91767e+09 6.7806e+09 
6.67463e+09 6.7585e+09 6.90493e+09 6.98897e+09 7.21398e+09 7.38383e+09 7.46144e+09 6.99254e+09 6.8846e+09 
7.04886e+09 7.25762e+09 7.11114e+09 7.09561e+09 6.87824e+09 6.7794e+09 7.02852e+09 6.5133e+09 6.70842e+09 
6.56408e+09 6.68648e+09 6.87753e+09 6.86826e+09 6.90296e+09 6.86153e+09 6.79532e+09 6.76227e+09 6.76094e+09 
6.84588e+09 6.52675e+09 6.86576e+09 6.73051e+09 7.20966e+09 7.48072e+09 6.80032e+09 6.89425e+09 7.2068e+09 
7.04004e+09 7.38631e+09 6.7948e+09 6.75225e+09 7.02509e+09 7.17746e+09 6.86885e+09 6.99753e+09 6.91843e+09 
6.78947e+09 7.055e+09 6.74578e+09 6.58375e+09 6.74266e+09 6.7834e+09 6.86994e+09 6.83382e+09 7.16706e+09 
7.20315e+09 6.73868e+09 6.82106e+09 6.94795e+09 7.0605e+09 7.00318e+09 6.60449e+09 7.12194e+09 7.01831e+09 
7.08513e+09 7.25815e+09 6.63076e+09 7.00533e+09 7.04641e+09 7.00171e+09 6.85906e+09 6.81464e+09 7.04612e+09 
7.36657e+09 7.51818e+09 6.87992e+09 6.67165e+09 6.83192e+09 6.74515e+09 6.78099e+09 6.79861e+09 6.83945e+09 
7.22244e+09 6.91615e+09 6.68843e+09 7.0139e+09 7.06531e+09 6.90058e+09 6.97377e+09 6.7346e+09 7.12723e+09 
7.19007e+09 6.71347e+09 6.80534e+09 6.95515e+09 6.66578e+09 6.67736e+09 6.6957e+09 6.99966e+09 7.14126e+09 
6.92576e+09 6.72251e+09 6.82344e+09 7.01824e+09 7.03611e+09 7.20514e+09 6.67798e+09 6.71919e+09 6.85244e+09 
6.66081e+09 6.83646e+09 6.80037e+09 6.83694e+09 6.9526e+09 6.88381e+09 7.10241e+09 6.83955e+09 6.76412e+09 
6.97047e+09 6.92458e+09 6.92469e+09 6.91036e+09 6.73916e+09 6.51673e+09 6.79887e+09 6.74287e+09 6.643e+09 
6.93914e+09 6.7636e+09 6.71143e+09 6.84543e+09 6.8629e+09 7.18614e+09 6.99271e+09 7.12288e+09 7.0617e+09 
6.87432e+09 6.73381e+09 6.91755e+09 7.09367e+09 6.74856e+09 7.01426e+09 7.11802e+09 7.00802e+09 6.684e+09 
6.76981e+09 7.35964e+09 6.79182e+09 6.84313e+09 6.84584e+09 6.95119e+09 7.1157e+09 6.98907e+09 6.681e+09 
6.74472e+09 7.05978e+09 6.84348e+09 6.86253e+09 6.83129e+09 6.89175e+09 7.22475e+09 7.13712e+09 7.19486e+09 
6.98797e+09 6.77805e+09 6.99791e+09 6.8139e+09 6.89657e+09 6.79339e+09 6.86519e+09 6.9678e+09 7.189e+09 
6.70606e+09 6.96794e+09 6.97383e+09 7.00854e+09 6.90359e+09 7.09596e+09 6.98696e+09 6.71616e+09 7.21369e+09 
6.72194e+09 7.36374e+09 7.21874e+09 7.02757e+09 6.68566e+09 6.81519e+09 6.74205e+09 7.07977e+09 7.26359e+09 
6.98711e+09 6.91312e+09 7.0307e+09 6.88463e+09 6.85262e+09 6.88623e+09 6.82268e+09 6.74234e+09 6.98623e+09 
6.91985e+09 6.86574e+09 6.7777e+09 6.98348e+09 6.81037e+09 7.0857e+09 6.76351e+09 7.14018e+09 7.1336e+09 
7.00609e+09 6.83955e+09 6.95753e+09 7.00876e+09 6.66852e+09 6.80685e+09 7.26716e+09 7.1992e+09 6.94065e+09 
7.07102e+09 7.30304e+09 7.18856e+09 6.98119e+09 6.94885e+09 6.77653e+09 7.0521e+09 6.76906e+09 6.97315e+09 
6.79166e+09 6.93835e+09 7.11313e+09 6.79227e+09 6.78002e+09 6.7767e+09 6.75605e+09 6.58431e+09 6.93575e+09 
6.86199e+09 6.63847e+09 7.06916e+09 6.69457e+09 6.6513e+09 6.77489e+09 7.0154e+09 6.8456e+09 6.73788e+09 
6.7115e+09 6.86151e+09 6.91067e+09 7.06317e+09 7.19189e+09 7.22073e+09 6.9887e+09 6.94243e+09 6.71727e+09 
6.67383e+09 6.71267e+09 6.72031e+09 6.77175e+09 6.79125e+09 6.81812e+09 6.91951e+09 6.89118e+09 6.642e+09 
6.93448e+09 6.94444e+09 6.99305e+09 6.81512e+09 6.96529e+09 6.91694e+09 6.72611e+09 6.80365e+09 6.77778e+09 
6.93685e+09 6.83784e+09 6.8799e+09 7.04992e+09 6.70197e+09 6.77883e+09 6.89891e+09 7.05635e+09 7.09965e+09 
7.54351e+09 7.18933e+09 6.8519e+09 6.88117e+09 6.68222e+09 6.90452e+09 6.7866e+09 7.1252e+09 7.37642e+09 
6.86378e+09 6.99073e+09 7.27323e+09 6.61844e+09 6.84824e+09 6.80481e+09 6.80676e+09 6.76318e+09 6.97767e+09 
6.9342e+09 7.60362e+09 7.58011e+09 6.86717e+09 6.99048e+09 6.96094e+09 6.89709e+09 7.27495e+09 7.2252e+09 
7.02124e+09 7.15782e+09 6.92625e+09 7.15552e+09 6.82236e+09 7.19014e+09 7.14891e+09 6.85396e+09 6.84516e+09 
6.8599e+09 6.90445e+09 7.02857e+09 6.923e+09 7.1949e+09 7.02648e+09 7.157e+09 6.98143e+09 6.8973e+09 
6.78434e+09 6.86441e+09 6.80166e+09 6.71167e+09 6.78145e+09 7.1179e+09 7.00859e+09 6.92861e+09 6.79472e+09 
7.06768e+09 6.948e+09 7.21061e+09 7.05363e+09 6.76841e+09 6.77581e+09 6.67704e+09 6.73838e+09 7.07025e+09 
7.11403e+09 7.42746e+09 7.4099e+09 6.99126e+09 6.73749e+09 6.90725e+09 7.02371e+09 6.82557e+09 6.91714e+09 
6.86978e+09 6.97182e+09 6.90312e+09 6.79728e+09 6.91206e+09 7.07924e+09 6.72984e+09 6.8756e+09 6.95719e+09 
6.78163e+09 6.86445e+09 6.84056e+09 6.97691e+09 6.79451e+09 6.93029e+09 6.747e+09 6.87279e+09 7.12068e+09 
6.43205e+09 6.74304e+09 7.09989e+09 6.83153e+09 7.10569e+09 7.18577e+09 7.6407e+09 7.39993e+09 6.87167e+09 
6.61012e+09 7.32649e+09 6.98639e+09 6.90576e+09 7.14773e+09 6.82862e+09 6.73798e+09 6.96944e+09 6.70252e+09 
6.74154e+09 6.56657e+09 6.71774e+09 6.77821e+09 7.03335e+09 6.88773e+09 6.76177e+09 7.00522e+09 6.94606e+09 
6.84042e+09 7.13798e+09 6.80267e+09 7.06934e+09 7.23726e+09 7.29779e+09 7.15791e+09 6.73004e+09 6.59379e+09 
6.67222e+09 6.93307e+09 7.28737e+09 6.99808e+09 7.23912e+09 7.30046e+09 6.88279e+09 7.32745e+09 7.09569e+09 
7.01089e+09 6.75998e+09 6.7689e+09 6.8698e+09 6.74184e+09 6.85887e+09 6.9697e+09 6.85577e+09 6.91954e+09 
6.68718e+09 6.94471e+09 6.72026e+09 6.97753e+09 6.82563e+09 6.80415e+09 6.76035e+09 6.99524e+09 6.87233e+09 
6.99876e+09 7.30892e+09 6.82658e+09 6.81177e+09 7.02984e+09 7.01401e+09 6.87903e+09 6.81264e+09 7.14349e+09 
7.23522e+09 7.16217e+09 7.08669e+09 7.35486e+09 6.64171e+09 6.88047e+09 6.82447e+09 7.05763e+09 6.85723e+09 
7.17769e+09 6.9027e+09 7.10124e+09 7.28961e+09 7.1853e+09 7.12042e+09 7.06449e+09 6.75241e+09 7.42621e+09 
6.90877e+09 7.09759e+09 7.0827e+09 7.10484e+09 7.29969e+09 7.08461e+09 7.20395e+09 6.87182e+09 6.93989e+09 
6.92742e+09 6.94921e+09 6.9872e+09 6.99012e+09 6.91152e+09 6.90803e+09 6.8863e+09 6.87161e+09 7.23314e+09 
6.75052e+09 6.92706e+09 6.62427e+09 6.92265e+09 7.10382e+09 6.91264e+09 6.95646e+09 7.02175e+09 6.75434e+09 
7.03355e+09 7.20303e+09 6.94365e+09 6.68581e+09 6.56201e+09 6.99812e+09 7.08309e+09 6.87886e+09 7.0716e+09 
6.93817e+09 6.83727e+09 6.75925e+09 6.91611e+09 6.95322e+09 7.15261e+09 6.81367e+09 7.40476e+09 7.35711e+09 