# vtk DataFile Version 3.0
vtk output
ASCII
DATASET STRUCTURED_POINTS
DIMENSIONS 10 10 10
SPACING 1 1 1
ORIGIN 0 0 0

POINT_DATA 1000
SCALARS node_sMD float
LOOKUP_TABLE default
0 0 0 0 0 0 0 0 0 
0 0 0 0 0 0 0 0 0 
0 0 0 0 0 0 0 0 0 
0 0 0 0 0 0 0 0 0 
0 0 0 0 0 0 0 0 0 
0 0 0 0 0 0 0 0 0 
0 0 0 0 0 0 0 0 0 
0 0 0 0 0 0 0 0 0 
0 0 0 0 0 0 0 0 0 
0 0 0 0 0 0 0 0 0 
0 0 0 0 0 0 0 0 0 
0 0 0 0 0 0 0 0 0 
0 0 0 0 0 0 0 0 0 
0 0 0 0 0 0 0 3.51409 3.51414 
0 0 0 0 0 0 0 3.52203 3.53594 
3.53576 3.52231 0 0 0 0 0 3.51329 3.53473 
3.5518 3.55314 3.53397 3.5136 0 0 0 0 3.51299 
3.53355 3.54991 3.54813 3.53322 3.51345 0 0 0 0 
0 3.52103 3.53356 3.53344 3.52194 0 0 0 0 
0 0 0 3.51355 3.51365 0 0 0 0 
0 0 0 0 0 0 0 0 0 
0 0 0 0 0 0 0 0 0 
0 0 0 0 0 0 0 0 0 
0 0 0 0 0 0 0 3.51432 3.51441 
0 0 0 0 0 0 3.51397 3.53629 3.55168 
3.54986 3.53659 3.51418 0 0 0 0 3.53627 3.54908 
3.78144 3.85269 3.59611 3.53536 0 0 0 3.51317 3.54729 
9.13356 9.50971 9.52523 9.18793 3.55405 3.51364 0 0 3.51287 
3.55253 10.2882 10.2562 10.9252 10.7316 3.54374 3.51351 0 0 
0 3.53399 3.73847 11.0025 11.074 3.84408 3.5336 0 0 
0 0 3.51336 3.5345 3.53583 3.53562 3.53291 3.51389 0 
0 0 0 0 0 3.51374 3.51375 0 0 
0 0 0 0 0 0 0 0 0 
0 0 0 0 0 0 0 0 0 
0 0 0 0 0 0 0 3.52266 3.5359 
3.53638 3.52344 0 0 0 0 0 3.53623 3.56174 
3.5413 3.55173 3.55869 3.53659 0 0 0 3.52151 3.5385 
9.45067 11.1166 11.1202 9.48769 3.61299 3.52237 0 0 3.5353 
8.87139 10.9695 12.2134 12.125 10.9767 9.3682 3.53373 0 0 
3.53407 10.2212 11.3943 11.4292 11.4898 11.3113 10.9144 3.53326 0 
0 3.52037 3.70857 14.4831 13.714 12.7183 13.6052 3.91639 3.52231 
0 0 0 3.53509 3.95657 12.9966 13.2625 4.30471 3.53269 
0 0 0 0 0 3.52107 3.53302 3.53141 3.52145 
0 0 0 0 0 0 0 0 0 
0 0 0 0 0 0 0 0 0 
0 0 0 0 0 0 0 3.51418 3.53596 
3.5527 3.55315 3.53662 3.5145 0 0 0 3.51388 3.55392 
3.54759 9.5179 9.53057 3.55854 3.54733 3.51419 0 0 3.53635 
3.6402 11.1157 12.5231 12.6492 11.0919 3.94829 3.53526 0 0 
3.54743 9.48844 12.2055 8.15468 8.17753 12.0594 9.55241 3.55335 0 
0 3.55381 9.65645 11.4239 8.15438 8.1689 11.7057 12.3582 3.54231 
0 0 3.53435 10.8783 13.5459 12.0298 11.9833 12.5353 11.4317 
3.53358 0 0 3.51313 3.53904 12.7724 13.3179 13.2778 13.5232 
3.54174 3.51381 0 0 0 3.51346 3.53435 3.53592 3.54886 
3.53104 3.51346 0 0 0 0 0 0 0 
0 0 0 0 0 0 0 0 0 
0 0 0 0 0 0 0 0 3.51449 
3.53698 3.5485 3.54717 3.53681 3.51419 0 0 0 3.51382 
3.5546 3.56915 10.7182 12.7706 4.02907 3.54903 3.51382 0 0 
3.53635 3.65472 11.1902 12.0153 12.6669 11.2512 7.95088 3.53398 0 
0 3.5477 9.51815 12.1922 8.14765 8.14343 12.3153 9.83427 3.55182 
0 0 3.55319 9.83608 11.4123 8.1573 8.14683 11.1966 10.6859 
3.5397 0 0 3.53448 10.9203 13.7475 11.8643 11.9054 12.8576 
12.3897 3.53187 0 0 3.51308 3.53862 12.7228 13.4692 13.5093 
13.7145 3.55759 3.51282 0 0 0 3.51343 3.53415 3.54566 
3.54832 3.5327 3.51245 0 0 0 0 0 0 
0 0 0 0 0 0 0 0 0 
0 0 0 0 0 0 0 0 0 
0 3.52251 3.5371 3.53735 3.52298 0 0 0 0 
0 3.53625 3.55869 3.60249 3.84861 3.60123 3.53585 0 0 
0 3.52131 3.54214 9.61451 11.1342 11.1851 9.77388 3.55182 3.52246 
0 0 3.53551 9.15028 11.0429 11.9092 12.2083 11.0735 10.2466 
3.5329 0 0 3.53455 10.4514 11.2427 11.3895 11.303 11.2991 
11.7501 3.532 0 0 3.52048 3.75884 13.9721 13.1435 12.8655 
14.0672 4.24241 3.52183 0 0 0 3.53465 4.12317 13.3514 
13.5538 4.69273 3.53189 0 0 0 0 0 3.52117 
3.53209 3.53225 3.52073 0 0 0 0 0 0 
0 0 0 0 0 0 0 0 0 
0 0 0 0 0 0 0 0 0 
0 0 0 3.51406 3.51412 0 0 0 0 
0 0 3.51367 3.53577 3.55534 3.54998 3.53594 3.51378 0 
0 0 0 3.536 3.54355 3.81196 5.54289 3.52246 3.53464 
0 0 0 3.51296 3.55036 9.53198 9.64524 9.68534 10.1363 
3.55209 3.51321 0 0 3.51275 3.54944 10.8037 9.94543 10.4752 
11.6199 3.54136 3.51295 0 0 0 3.5342 3.83806 11.3512 
11.6845 4.14979 3.53189 0 0 0 0 3.51313 3.53361 
3.53828 3.54538 3.53216 3.5131 0 0 0 0 0 
0 3.51344 3.51322 0 0 0 0 0 0 
0 0 0 0 0 0 0 0 0 
0 0 0 0 0 0 0 0 0 
0 0 0 0 0 0 0 0 0 
0 0 0 0 0 3.51359 3.51364 0 0 
0 0 0 0 0 3.52165 3.53521 3.53506 3.52238 
0 0 0 0 0 3.51301 3.53486 3.55045 3.55042 
3.53387 3.51322 0 0 0 0 3.51282 3.53413 3.54471 
3.54303 3.53271 3.51299 0 0 0 0 0 3.52146 
3.53304 3.53262 3.52216 0 0 0 0 0 0 
0 3.51325 3.51331 0 0 0 0 0 0 
0 0 0 0 0 0 0 0 0 
0 0 0 0 0 0 0 0 0 
0 0 0 0 0 0 0 0 0 
0 0 0 0 0 0 0 0 0 
0 0 0 0 0 0 0 0 0 
0 0 0 0 0 0 0 0 0 
0 0 0 0 0 0 0 0 0 
0 0 0 0 0 0 0 0 0 
0 0 0 0 0 0 0 0 0 
0 0 0 0 0 0 0 0 0 
0 0 0 0 0 0 0 0 0 
0 0 0 0 0 0 0 0 0 
0 0 0 0 0 0 0 0 0 
0 
