# vtk DataFile Version 3.0
vtk output
ASCII
DATASET RECTILINEAR_GRID
FIELD FieldData 5
base_index 1 3 int
0 0 0 
avtOriginalBounds 1 6 double
-10 10 -10 10 -10 10 
MeshName 1 1 string
mesh

CYCLE 1 1 int
7 
TIME 1 1 double
7 
DIMENSIONS 50 50 50
X_COORDINATES 50 float
-10 -9.59184 -9.18367 -8.77551 -8.36735 -7.95918 -7.55102 -7.14286 -6.73469 
-6.32653 -5.91837 -5.5102 -5.10204 -4.69388 -4.28571 -3.87755 -3.46939 -3.06122 
-2.65306 -2.2449 -1.83673 -1.42857 -1.02041 -0.612245 -0.204082 0.204082 0.612245 
1.02041 1.42857 1.83673 2.2449 2.65306 3.06122 3.46939 3.87755 4.28571 
4.69388 5.10204 5.5102 5.91837 6.32653 6.73469 7.14286 7.55102 7.95918 
8.36735 8.77551 9.18367 9.59184 10 
Y_COORDINATES 50 float
-10 -9.59184 -9.18367 -8.77551 -8.36735 -7.95918 -7.55102 -7.14286 -6.73469 
-6.32653 -5.91837 -5.5102 -5.10204 -4.69388 -4.28571 -3.87755 -3.46939 -3.06122 
-2.65306 -2.2449 -1.83673 -1.42857 -1.02041 -0.612245 -0.204082 0.204082 0.612245 
1.02041 1.42857 1.83673 2.2449 2.65306 3.06122 3.46939 3.87755 4.28571 
4.69388 5.10204 5.5102 5.91837 6.32653 6.73469 7.14286 7.55102 7.95918 
8.36735 8.77551 9.18367 9.59184 10 
Z_COORDINATES 50 float
-10 -9.59184 -9.18367 -8.77551 -8.36735 -7.95918 -7.55102 -7.14286 -6.73469 
-6.32653 -5.91837 -5.5102 -5.10204 -4.69388 -4.28571 -3.87755 -3.46939 -3.06122 
-2.65306 -2.2449 -1.83673 -1.42857 -1.02041 -0.612245 -0.204082 0.204082 0.612245 
1.02041 1.42857 1.83673 2.2449 2.65306 3.06122 3.46939 3.87755 4.28571 
4.69388 5.10204 5.5102 5.91837 6.32653 6.73469 7.14286 7.55102 7.95918 
8.36735 8.77551 9.18367 9.59184 10 
CELL_DATA 117649
SCALARS z float
LOOKUP_TABLE default
2.12651 2.14278 2.15696 2.16863 2.17732 2.18273 2.18539 2.1882 2.19657 
2.21372 2.23655 2.25941 2.27907 2.29469 2.3063 2.31415 2.31841 2.31927 
2.31691 2.31158 2.30367 2.29363 2.28205 2.26957 2.25688 2.24463 2.23341 
2.2237 2.21581 2.20993 2.20607 2.20411 2.20382 2.20488 2.20694 2.20961 
2.21249 2.21516 2.21721 2.21818 2.21764 2.21515 2.21029 2.20273 2.19224 
2.17875 2.16234 2.14323 2.12176 2.16498 2.18265 2.1983 2.21157 2.22214 
2.22989 2.23551 2.24147 2.25186 2.26901 2.29062 2.31241 2.33156 2.34707 
2.35876 2.36665 2.3708 2.37128 2.36822 2.36185 2.35253 2.34079 2.32728 
2.31275 2.29798 2.28374 2.27071 2.25944 2.25032 2.24356 2.23919 2.23709 
2.237 2.23859 2.24146 2.24519 2.24933 2.2534 2.25692 2.25937 2.26019 
2.25883 2.25475 2.2475 2.23681 2.22259 2.20497 2.18426 2.16092 2.20487 
2.22418 2.2416 2.25691 2.26996 2.28087 2.29037 2.30027 2.31305 2.32993 
2.34963 2.36949 2.38742 2.40235 2.4138 2.42156 2.4255 2.42554 2.42172 
2.41423 2.40343 2.38989 2.37434 2.35762 2.34064 2.32426 2.30927 2.2963 
2.2858 2.27802 2.27301 2.27065 2.27068 2.27273 2.27638 2.28116 2.28659 
2.29214 2.29723 2.30128 2.30361 2.30351 2.3003 2.29341 2.28245 2.26735 
2.24831 2.22576 2.20032 2.24612 2.26725 2.28664 2.30419 2.31988 2.33396 
2.34708 2.3604 2.37523 2.39217 2.41052 2.42878 2.44554 2.45979 2.47091 
2.47846 2.48213 2.48169 2.47708 2.46843 2.4561 2.4407 2.42303 2.40405 
2.38476 2.36615 2.34909 2.3343 2.3223 2.31336 2.30757 2.30481 2.30482 
2.30721 2.31155 2.31731 2.32398 2.33099 2.33769 2.34339 2.34729 2.34853 
2.34625 2.3397 2.32841 2.31229 2.29163 2.26704 2.2393 2.28868 2.31173 
2.33318 2.35297 2.37119 2.38808 2.40413 2.42007 2.43656 2.45388 2.47164 
2.48898 2.50494 2.51867 2.52949 2.53681 2.54018 2.53924 2.53382 2.52399 
2.51012 2.49284 2.47305 2.45179 2.43017 2.40929 2.39011 2.37342 2.3598 
2.34958 2.34285 2.33953 2.33934 2.34191 2.34676 2.35335 2.36112 2.36946 
2.37767 2.38495 2.39038 2.39293 2.39154 2.38528 2.37357 2.35631 2.33391 
2.30716 2.27704 2.33248 2.35753 2.38104 2.403 2.4235 2.44276 2.46114 
2.47907 2.49692 2.5148 2.53249 2.54944 2.56497 2.57837 2.58894 2.59604 
2.59908 2.5976 2.59135 2.58035 2.56495 2.54583 2.52396 2.50047 2.47658 
2.45346 2.43217 2.41355 2.39824 2.38661 2.3788 2.37473 2.37415 2.37665 
2.38177 2.38894 2.39757 2.40698 2.41643 2.42505 2.4318 2.43546 2.4348 
2.42872 2.41649 2.39803 2.37387 2.34499 2.31257 2.37752 2.4046 2.43015 
2.45415 2.4767 2.49797 2.51822 2.53773 2.5567 2.57521 2.59308 2.60994 
2.62527 2.63845 2.64879 2.65561 2.65824 2.65616 2.64903 2.63685 2.61997 
2.5991 2.57527 2.54969 2.52365 2.49841 2.47507 2.45455 2.43751 2.42439 
2.41534 2.41033 2.4091 2.41127 2.41635 2.42376 2.43286 2.44294 2.45322 
2.46274 2.47036 2.47475 2.47451 2.46837 2.45553 2.4359 2.41011 2.37933 
2.34489 2.42378 2.45294 2.48049 2.50643 2.53084 2.55384 2.57565 2.59645 
2.61638 2.63548 2.65362 2.67051 2.68571 2.69865 2.70868 2.71509 2.71718 
2.71437 2.7063 2.69293 2.67463 2.65213 2.62651 2.59904 2.57106 2.54387 
2.51862 2.49626 2.4775 2.46281 2.4524 2.44623 2.4441 2.44563 2.45029 
2.45751 2.4666 2.47683 2.48734 2.49714 2.50502 2.50956 2.50925 2.50275 
2.48919 2.4685 2.4414 2.40913 2.37316 2.47129 2.50257 2.53212 2.55991 
2.58602 2.61057 2.63371 2.65561 2.67636 2.696 2.7144 2.73131 2.74633 
2.75893 2.76849 2.77428 2.77561 2.7719 2.76276 2.74818 2.72852 2.70454 
2.67734 2.64823 2.61855 2.58963 2.56264 2.53857 2.51813 2.50184 2.48993 
2.48242 2.47912 2.47964 2.48348 2.49001 2.49854 2.50828 2.51835 2.52769 
2.53507 2.53905 2.5381 2.53086 2.51651 2.49495 2.46694 2.43374 2.39685 
2.52007 2.55353 2.58506 2.61466 2.64237 2.66832 2.69266 2.71553 2.73702 
2.75713 2.77575 2.79264 2.80739 2.81951 2.82837 2.83328 2.8336 2.82874 
2.81837 2.8025 2.78152 2.75619 2.72763 2.69711 2.66601 2.63561 2.6071 
2.58144 2.5594 2.54149 2.52799 2.51895 2.51419 2.51335 2.51592 2.52126 
2.52863 2.53721 2.5461 2.55423 2.56034 2.56304 2.56087 2.55256 2.53732 
2.51511 2.48663 2.45309 2.41591 2.5701 2.6058 2.63935 2.67071 2.69995 
2.72722 2.75267 2.77645 2.79865 2.81925 2.83811 2.85496 2.86937 2.88085 
2.88879 2.89256 2.89154 2.88526 2.87345 2.85617 2.83385 2.80727 2.77751 
2.74582 2.71353 2.68189 2.65205 2.62496 2.60139 2.58187 2.56669 2.55594 
2.54945 2.5469 2.54776 2.55137 2.557 2.56381 2.57084 2.57705 2.58123 
2.58205 2.57819 2.56851 2.55233 2.52964 2.50105 2.46765 2.43072 2.62131 
2.65934 2.69491 2.72802 2.75874 2.78728 2.81382 2.83856 2.86155 2.88276 
2.90197 2.91887 2.93297 2.94373 2.95058 2.95293 2.95027 2.94225 2.92873 
2.90985 2.8861 2.85827 2.82741 2.79471 2.76141 2.72872 2.69772 2.66933 
2.64431 2.62317 2.60624 2.59361 2.58515 2.58054 2.57926 2.58068 2.58403 
2.58848 2.5931 2.59684 2.59858 2.5971 2.59122 2.57999 2.56284 2.53977 
2.5113 2.47836 2.44205 2.67349 2.71393 2.75155 2.78637 2.81854 2.84834 
2.87604 2.90187 2.92589 2.94801 2.96791 2.98514 2.99911 3.00922 3.01488 
3.01559 3.01097 3.00086 2.98528 2.96452 2.93916 2.90999 2.87801 2.84434 
2.81013 2.77649 2.74444 2.71484 2.6884 2.66564 2.64689 2.63223 2.62157 
2.61458 2.6108 2.60959 2.61021 2.61187 2.61363 2.61453 2.6135 2.60946 
2.60141 2.58854 2.57039 2.54697 2.51871 2.48637 2.45086 2.72627 2.76917 
2.80882 2.8453 2.87888 2.90997 2.93898 2.96621 2.99173 3.01533 3.03655 
3.0547 3.06901 3.07871 3.08319 3.08205 3.07512 3.06247 3.04439 3.02137 
2.99408 2.96334 2.93012 2.89542 2.86029 2.82572 2.79263 2.76183 2.73398 
2.70957 2.6889 2.67208 2.65901 2.6494 2.64279 2.63861 2.63617 2.63469 
2.63331 2.63112 2.62716 2.62047 2.61019 2.59565 2.57648 2.55268 2.52459 
2.49281 2.45811 2.77895 2.82432 2.86594 2.90398 2.9389 2.97134 3.00193 
3.03109 3.05888 3.08497 3.10858 3.12868 3.14412 3.15391 3.15734 3.15415 
3.14445 3.12869 3.10751 3.08167 3.05199 3.01935 2.98463 2.94873 2.91254 
2.87694 2.84274 2.81067 2.78134 2.7552 2.73252 2.71341 2.69777 2.68533 
2.67568 2.66829 2.66253 2.6577 2.65301 2.64762 2.64068 2.63133 2.61882 
2.6026 2.58237 2.55809 2.53005 2.49872 2.46472 2.83047 2.87822 2.92163 
2.96103 2.99718 3.03107 3.06364 3.09553 3.12682 3.15695 3.18469 3.2084 
3.22632 3.23699 3.2396 3.23404 3.2209 3.20117 3.17602 3.14661 3.11396 
3.07896 3.0424 3.00503 2.96757 2.93074 2.89524 2.86173 2.83076 2.80274 
2.77794 2.75641 2.73808 2.72268 2.70985 2.69911 2.68991 2.68162 2.67355 
2.66494 2.65502 2.64303 2.62832 2.61042 2.58904 2.56417 2.53601 2.50493 
2.47142 2.87922 2.9291 2.97397 3.01441 3.05159 3.08701 3.12212 3.15789 
3.19449 3.23102 3.26558 3.29549 3.31795 3.33073 3.33275 3.32424 3.30654 
3.28154 3.25122 3.21725 3.18088 3.14301 3.10425 3.0651 3.02606 2.98768 
2.95056 2.91531 2.88243 2.85233 2.82523 2.80118 2.78006 2.76164 2.74558 
2.73146 2.7188 2.70704 2.6956 2.68379 2.67093 2.65634 2.63945 2.61982 
2.59722 2.57159 2.5431 2.51204 2.47877 2.92299 2.97453 3.02031 3.06124 
3.09907 3.13604 3.17435 3.21555 3.25999 3.30641 3.35182 3.39191 3.42208 
3.4387 3.44026 3.42765 3.40353 3.37129 3.33408 3.29428 3.2534 3.21217 
3.17089 3.12968 3.08871 3.04835 3.00913 2.97166 2.93648 2.90398 2.87437 
2.84766 2.82371 2.80228 2.78302 2.76556 2.7495 2.73435 2.71959 2.70465 
2.6889 2.67174 2.65266 2.63125 2.60731 2.58076 2.55172 2.52042 2.48715 
2.959 3.01139 3.05721 3.09778 3.13562 3.17395 3.21609 3.26455 3.32018 
3.38136 3.44358 3.49991 3.54256 3.56546 3.56637 3.54746 3.51382 3.47135 
3.42495 3.37788 3.33175 3.28693 3.24305 3.19962 3.15634 3.11339 3.07136 
3.03097 2.99288 2.95756 2.92516 2.89567 2.86886 2.84445 2.82209 2.80142 
2.78208 2.76366 2.74571 2.72772 2.70913 2.68943 2.66813 2.64489 2.61948 
2.59185 2.56205 2.53026 2.49673 2.98407 3.03614 3.08075 3.1197 3.1564 
3.19541 3.2416 3.29909 3.36988 3.45228 3.53985 3.62147 3.68387 3.71642 
3.71572 3.68654 3.6385 3.58156 3.52313 3.46736 3.41566 3.36755 3.32153 
3.276 3.23001 3.1836 3.13764 3.09327 3.05144 3.0127 2.97719 2.94476 
2.91509 2.88779 2.86247 2.83877 2.81633 2.7948 2.77379 2.75285 2.7315 
2.70929 2.68577 2.66062 2.63365 2.60477 2.57403 2.54155 2.50752 2.9952 
3.04534 3.08705 3.12254 3.1562 3.19415 3.24347 3.31088 3.40069 3.51209 
3.6365 3.75655 3.84953 3.89641 3.89181 3.84583 3.7763 3.69955 3.62609 
3.56071 3.50407 3.45412 3.40739 3.36041 3.3112 3.25991 3.20827 3.15834 
3.11161 3.06873 3.02973 2.99424 2.96173 2.93167 2.90357 2.87703 2.8517 
2.82725 2.80333 2.77957 2.75556 2.73088 2.70515 2.67809 2.64949 2.61927 
2.58744 2.5541 2.51938 2.99023 3.03653 3.0732 3.10271 3.13025 3.16362 
3.2128 3.28852 3.39945 3.5475 3.72249 3.89845 4.03719 4.10468 4.09229 
4.02044 3.92096 3.81914 3.72864 3.65417 3.59489 3.5464 3.50207 3.45514 
3.40192 3.34331 3.28318 3.22543 3.17232 3.12453 3.08171 3.0431 3.00785 
2.9752 2.94453 2.91537 2.88735 2.86018 2.83355 2.80713 2.78058 2.75354 
2.72568 2.69672 2.66648 2.63487 2.60188 2.56757 2.53204 2.96869 3.0091 
3.03834 3.05867 3.07554 3.09815 3.13988 3.2174 3.34683 3.53592 3.77415 
4.02473 4.22688 4.32277 4.29892 4.19318 4.05798 3.92912 3.82246 3.74173 
3.68432 3.64316 3.60689 3.56283 3.50412 3.43397 3.36109 3.29262 3.23164 
3.17833 3.1316 3.09 3.05223 3.01723 2.98423 2.95268 2.92221 2.89254 
2.8634 2.83453 2.80563 2.77639 2.74652 2.71578 2.68398 2.65102 2.61685 
2.58153 2.54512 2.93218 2.96498 2.98454 2.9922 2.99256 2.99508 3.01636 
3.08121 3.21811 3.44525 3.7524 4.08877 4.36613 4.4981 4.4662 4.3298 
4.16398 4.014 3.89679 3.81516 3.76576 3.73981 3.72005 3.68329 3.61653 
3.52859 3.43786 3.3561 3.28646 3.22771 3.17745 3.13331 3.09342 3.05642 
3.02138 2.98771 2.95504 2.92311 2.89172 2.86064 2.82963 2.79844 2.76679 
2.73445 2.70124 2.66703 2.63178 2.59549 2.5582 2.88436 2.90861 2.91715 
2.90943 2.88747 2.8585 2.84031 2.86772 2.98981 3.24347 3.6162 4.03421 
4.38187 4.55415 4.53202 4.38921 4.21444 4.0589 3.94113 3.86487 3.82826 
3.82331 3.82744 3.80238 3.72537 3.61501 3.50425 3.40953 3.33249 3.26966 
3.21698 3.17115 3.12979 3.09126 3.05456 3.01909 2.9845 2.9506 2.91724 
2.88426 2.85147 2.81864 2.78551 2.75186 2.71749 2.68225 2.64607 2.60891 
2.57083 2.83018 2.84631 2.84433 2.82106 2.77415 2.7049 2.62719 2.58491 
2.66047 2.92638 3.36192 3.84973 4.24852 4.45817 4.46888 4.35384 4.1992 
4.05721 3.9494 3.88258 3.85787 3.86967 3.89306 3.87838 3.79482 3.66942 
3.54659 3.44521 3.36516 3.30112 3.24793 3.20168 3.15969 3.12025 3.08233 
3.04541 3.00924 2.9737 2.93873 2.90423 2.87005 2.83598 2.80178 2.76719 
2.73199 2.69601 2.65913 2.6213 2.58255 2.77488 2.7849 2.77547 2.74097 
2.67416 2.56796 2.42624 2.29567 2.30109 2.57172 3.07188 3.61629 4.04083 
4.27225 4.32005 4.24901 4.13125 4.01471 3.92286 3.86543 3.84557 3.85879 
3.88175 3.86815 3.78952 3.67101 3.55429 3.45761 3.38112 3.31974 3.26839 
3.22321 3.18159 3.14191 3.1033 3.06535 3.02797 2.99117 2.95499 2.91941 
2.88432 2.84951 2.81472 2.77966 2.74406 2.70769 2.67042 2.63217 2.59295 
2.72285 2.7301 2.71876 2.68225 2.61081 2.49201 2.32115 2.14196 2.10628 
2.38419 2.92129 3.47698 3.88262 4.10072 4.1618 4.12225 4.03733 3.9459 
3.86958 3.81852 3.79582 3.79675 3.80277 3.78256 3.71788 3.62406 3.52876 
3.44669 3.37965 3.32446 3.27715 3.23448 3.19422 3.15502 3.11624 3.07772 
3.03954 3.0019 2.96497 2.92882 2.89336 2.85839 2.82359 2.78859 2.75308 
2.71678 2.67948 2.6411 2.60163 2.67679 2.68512 2.67841 2.65156 2.59692 
2.50511 2.37488 2.24955 2.2653 2.56037 3.05986 3.53486 3.85146 4.00669 
4.04375 4.00902 3.94078 3.86592 3.80048 3.75239 3.7235 3.70934 3.69749 
3.67083 3.62005 3.55207 3.48127 3.41725 3.36251 3.31558 3.27381 3.23477 
3.19671 3.15865 3.12025 3.08159 3.04302 3.00496 2.96775 2.93158 2.89637 
2.86189 2.82773 2.79344 2.75859 2.72282 2.68591 2.64773 2.60829 2.63752 
2.6501 2.65333 2.64561 2.62518 2.59239 2.55862 2.56794 2.70842 3.03212 
3.43917 3.76089 3.93215 3.9864 3.97126 3.91951 3.85257 3.78479 3.72501 
3.67764 3.6431 3.61785 3.59455 3.56463 3.52366 3.4743 3.42309 3.37524 
3.33255 3.2943 3.25871 3.22395 3.18873 3.15236 3.11479 3.07638 3.03777 
2.99967 2.96265 2.92701 2.89273 2.85946 2.82668 2.79379 2.76021 2.72551 
2.68941 2.65179 2.61264 2.60431 2.62272 2.63819 2.6531 2.67211 2.70494 
2.77242 2.91287 3.16698 3.51401 3.83212 4.00488 4.03474 3.99031 3.92064 
3.84566 3.77299 3.70663 3.64914 3.60154 3.56315 3.53136 3.50203 3.47099 
3.43614 3.39842 3.3606 3.32503 3.29246 3.26216 3.23267 3.20247 3.1705 
3.13625 3.09986 3.06198 3.02356 2.98568 2.94923 2.9147 2.88204 2.85078 
2.82017 2.7894 2.75774 2.72465 2.6898 2.65306 2.61449 2.57576 2.59976 
2.62636 2.66104 2.71264 2.79525 2.93037 3.14408 3.44519 3.78019 4.02932 
4.11165 4.06265 3.96388 3.86321 3.77426 3.69772 3.63198 3.57577 3.528 
3.48734 3.4519 3.41942 3.38792 3.35648 3.3255 3.29608 3.26902 3.24421 
3.22064 3.19681 3.17121 3.14276 3.11096 3.07601 3.03877 3.00061 2.96308 
2.9275 2.89457 2.86424 2.8358 2.80819 2.78028 2.75116 2.72018 2.68697 
2.65144 2.61368 2.55075 2.57879 2.61313 2.66086 2.73222 2.84084 3.00266 
3.22987 3.51313 3.79693 3.99032 4.04158 3.9841 3.88451 3.78452 3.69735 
3.62355 3.56064 3.5063 3.45882 3.41683 3.37908 3.34444 3.31215 3.28201 
3.25437 3.2297 3.20811 3.18895 3.1709 3.15225 3.13129 3.10666 3.07765 
3.04435 3.00781 2.96982 2.93257 2.898 2.86712 2.8398 2.81497 2.79111 
2.76673 2.74068 2.71221 2.68096 2.64687 2.6101 2.52905 2.55924 2.5974 
2.65096 2.72968 2.84435 3.00398 3.20991 3.44543 3.66707 3.81792 3.86824 
3.83735 3.76716 3.68883 3.61577 3.55094 3.4935 3.44196 3.39506 3.35194 
3.31201 3.27498 3.24089 3.21012 3.18322 3.16059 3.14212 3.12696 3.11354 
3.09987 3.08381 3.06353 3.03785 3.00658 2.97081 2.93285 2.89573 2.86218 
2.83365 2.80989 2.78931 2.76979 2.74941 2.72676 2.70104 2.6719 2.63937 
2.60373 2.5115 2.5425 2.58155 2.63568 2.71333 2.82231 2.96635 3.14089 
3.32892 3.50044 3.62263 3.67881 3.67755 3.64141 3.5906 3.5365 3.48361 
3.43295 3.38441 3.33773 3.29284 3.24989 3.20933 3.17186 3.13841 3.10993 
3.08709 3.06993 3.05761 3.0484 3.03994 3.0295 3.01455 2.99321 2.96476 
2.93021 2.89237 2.85527 2.82269 2.79664 2.7767 2.76063 2.74564 2.72932 
2.71008 2.68706 2.66001 2.62905 2.59454 2.49951 2.53109 2.56992 2.62221 
2.69498 2.79374 2.91921 3.06492 3.21646 3.35385 3.45795 3.51886 3.53944 
3.53068 3.50423 3.46817 3.42687 3.3824 3.33586 3.28807 3.23986 3.19218 
3.14613 3.10305 3.06448 3.03198 3.0068 2.98943 2.97924 2.97438 2.97196 
2.9685 2.96052 2.94518 2.92105 2.88886 2.85184 2.81506 2.78347 2.75976 
2.74336 2.73141 2.72046 2.70773 2.69145 2.67079 2.64557 2.61601 2.58257 
2.49441 2.52739 2.56659 2.61717 2.68472 2.7731 2.88177 3.00446 3.12999 
3.24496 3.33759 3.40141 3.43649 3.44739 3.43979 3.41834 3.38622 3.34574 
3.2989 3.2476 3.19359 3.13859 3.08431 3.03269 2.98596 2.94655 2.91666 
2.89761 2.8892 2.88941 2.89459 2.90019 2.90149 2.89456 2.87707 2.84933 
2.81478 2.77931 2.74897 2.72714 2.71332 2.70426 2.69612 2.68585 2.67164 
2.65267 2.62883 2.60038 2.56787 2.49681 2.53267 2.5738 2.62419 2.68803 
2.7679 2.86288 2.96789 3.07479 3.17461 3.25976 3.32568 3.37101 3.39648 
3.40345 3.39314 3.36696 3.32709 3.27642 3.21807 3.15487 3.08918 3.02322 
2.95939 2.90068 2.85067 2.81309 2.7907 2.78404 2.79075 2.80592 2.82336 
2.83684 2.8412 2.83324 2.81277 2.78318 2.75079 2.72233 2.70179 2.68906 
2.68103 2.67386 2.66452 2.65117 2.63303 2.60997 2.58228 2.55049 2.50648 
2.54681 2.59162 2.64372 2.70589 2.77968 2.86415 2.95567 3.04883 3.13793 
3.21826 3.28663 3.341 3.37946 3.39942 3.39813 3.37457 3.33083 3.27142 
3.20136 3.12471 3.0444 2.9628 2.88249 2.80711 2.74177 2.69256 2.66473 
2.6601 2.67562 2.70414 2.73688 2.76565 2.78412 2.78845 2.77809 2.75619 
2.729 2.70337 2.68375 2.67071 2.66183 2.65379 2.6438 2.63011 2.61192 
2.58906 2.56176 2.53049 2.52253 2.56877 2.61887 2.67445 2.73696 2.807 
2.88373 2.96491 3.04749 3.12859 3.20596 3.278 3.34275 3.39626 3.43136 
3.43933 3.41515 3.36154 3.28672 3.19905 3.10416 3.00514 2.90394 2.80273 
2.70544 2.61896 2.55294 2.51689 2.515 2.54277 2.589 2.64087 2.68775 
2.72238 2.74081 2.74246 2.73029 2.71009 2.68839 2.66984 2.65581 2.64495 
2.63478 2.62301 2.60808 2.58917 2.56604 2.53885 2.50796 2.54381 2.59732 
2.65425 2.71504 2.77981 2.84821 2.91938 2.99224 3.06593 3.14021 3.21552 
3.29249 3.3705 3.44458 3.50171 3.52256 3.49439 3.42252 3.32358 3.21164 
3.09381 2.9726 2.84871 2.72307 2.59916 2.48548 2.39661 2.34903 2.35098 
2.39537 2.46411 2.53844 2.60507 2.6564 2.68911 2.70311 2.70134 2.68905 
2.67219 2.65535 2.64059 2.62763 2.615 2.60103 2.58443 2.56446 2.54082 
2.51357 2.48298 2.56915 2.63137 2.69692 2.765 2.83422 2.90298 2.97006 
3.03533 3.10006 3.16682 3.23911 3.32069 3.41395 3.51513 3.60493 3.646 
3.61065 3.51066 3.37888 3.2372 3.09322 2.94799 2.80038 2.64937 2.49696 
2.35253 2.23627 2.17433 2.18113 2.24557 2.33958 2.43708 2.52249 2.58882 
2.63403 2.65901 2.66686 2.66235 2.65074 2.63637 2.6217 2.60733 2.59267 
2.57671 2.55853 2.53749 2.51332 2.48599 2.45571 2.59732 2.66997 2.74654 
2.8248 2.9014 2.97271 3.03649 3.09332 3.14687 3.20298 3.26853 3.3507 
3.45579 3.58356 3.71064 3.77782 3.73635 3.60677 3.44194 3.2706 3.10037 
2.93179 2.76253 2.58954 2.41277 2.24131 2.09986 2.02412 2.03512 2.11734 
2.23252 2.34808 2.44722 2.52413 2.57825 2.61142 2.62694 2.62911 2.62252 
2.61108 2.59737 2.58254 2.56667 2.54932 2.52994 2.50809 2.48353 2.45623 
2.42635 2.62671 2.71182 2.80254 2.89513 2.98342 3.06024 3.12092 3.16655 
3.20415 3.24382 3.29594 3.37022 3.47517 3.61279 3.75907 3.84521 3.81086 
3.67604 3.497 3.30452 3.11134 2.92265 2.73712 2.55039 2.36066 2.17608 
2.02261 1.93965 1.95095 2.03902 2.16129 2.28272 2.38635 2.46712 2.52523 
2.56294 2.58347 2.5906 2.5882 2.57967 2.56746 2.55295 2.53668 2.51864 
2.49859 2.47629 2.45161 2.42452 2.39515 2.65492 2.7544 2.8629 2.97531 
3.08154 3.16819 3.22551 3.25499 3.26923 3.28459 3.31505 3.37094 3.45952 
3.58096 3.7136 3.80168 3.7947 3.69514 3.53132 3.32982 3.11891 2.91589 
2.72229 2.53311 2.34569 2.16715 2.02061 1.94033 1.94648 2.02363 2.13422 
2.24634 2.34366 2.42085 2.47774 2.51618 2.53889 2.54897 2.54956 2.54347 
2.53287 2.51916 2.50308 2.48493 2.4647 2.44234 2.41781 2.39113 2.36242 
2.67833 2.79306 2.92216 3.06001 3.1918 3.29408 3.34752 3.35402 3.336 
3.31921 3.3211 3.35075 3.41169 3.50075 3.60127 3.68041 3.70639 3.6597 
3.52781 3.32874 3.11005 2.90297 2.71181 2.53151 2.3594 2.20134 2.07491 
2.00407 2.00197 2.05754 2.14367 2.23537 2.31802 2.38564 2.43695 2.47285 
2.4952 2.5063 2.50856 2.50418 2.49495 2.48216 2.46662 2.44875 2.42873 
2.40663 2.3825 2.35641 2.3285 2.69223 2.82054 2.96963 3.13471 3.2968 
3.41934 3.46839 3.44636 3.39039 3.33812 3.30959 3.31115 3.34231 3.39773 
3.46597 3.53015 3.57061 3.55722 3.45563 3.27553 3.06967 2.87479 2.69779 
2.5353 2.38561 2.25324 2.14986 2.08972 2.07987 2.11319 2.17247 2.24024 
2.30458 2.35939 2.40239 2.43346 2.45352 2.46407 2.46678 2.4633 2.45503 
2.44308 2.42817 2.4108 2.39123 2.36962 2.34608 2.32073 2.29372 2.69166 
2.82825 2.99037 3.17468 3.35991 3.49862 3.54321 3.49651 3.40921 3.3286 
3.27556 3.2537 3.25966 3.28713 3.32758 3.37044 3.40067 3.39095 3.31128 
3.16636 2.99506 2.82812 2.67489 2.53547 2.40998 2.30198 2.21863 2.16765 
2.15232 2.16816 2.20483 2.25089 2.29739 2.33886 2.37257 2.39762 2.41419 
2.42305 2.42527 2.42198 2.41423 2.40288 2.38858 2.37177 2.35278 2.33179 
2.30897 2.28445 2.2584 2.67326 2.80979 2.97202 3.1567 3.34228 3.48006 
3.52079 3.46717 3.37111 3.28049 3.21576 3.17962 3.16803 3.17477 3.19255 
3.21268 3.22274 3.20402 3.13943 3.03125 2.90068 2.76784 2.64233 2.52728 
2.42457 2.33723 2.26968 2.22597 2.20746 2.21133 2.23135 2.26021 2.29157 
2.32095 2.34567 2.36448 2.37701 2.38353 2.3846 2.38096 2.37332 2.36233 
2.34851 2.33226 2.31388 2.29358 2.27153 2.24791 2.22285 2.15563 2.17228 
2.18663 2.19813 2.20611 2.20985 2.20953 2.20863 2.21534 2.23501 2.26258 
2.28956 2.31197 2.32931 2.34197 2.35033 2.35462 2.35503 2.35171 2.34495 
2.33514 2.32284 2.30878 2.29376 2.27865 2.26428 2.25141 2.2406 2.23225 
2.22655 2.22345 2.22276 2.22413 2.22715 2.23135 2.23627 2.24142 2.24634 
2.25058 2.25363 2.255 2.25417 2.25066 2.24403 2.23399 2.22045 2.2035 
2.18343 2.16064 2.19569 2.21382 2.22973 2.24299 2.25308 2.25965 2.2632 
2.26676 2.27631 2.29548 2.32078 2.346 2.36771 2.385 2.39788 2.40645 
2.41076 2.41084 2.40677 2.39877 2.38724 2.37282 2.35633 2.33871 2.32098 
2.30411 2.28899 2.2763 2.26651 2.25983 2.25625 2.25555 2.25736 2.26121 
2.26661 2.27302 2.27991 2.28677 2.29305 2.29816 2.30147 2.3023 2.29999 
2.29395 2.28378 2.26939 2.25093 2.22885 2.20373 2.23729 2.25717 2.27499 
2.29048 2.3034 2.31376 2.32231 2.3313 2.34407 2.36246 2.38466 2.40711 
2.42726 2.44396 2.45676 2.4654 2.46967 2.4694 2.46454 2.45524 2.44191 
2.42524 2.40616 2.38576 2.36522 2.34566 2.3281 2.31334 2.30192 2.2941 
2.28988 2.28904 2.29118 2.29581 2.30237 2.31031 2.31904 2.32797 2.3365 
2.34392 2.34945 2.35222 2.35132 2.34595 2.33559 2.32011 2.29981 2.27533 
2.24748 2.2804 2.30221 2.32216 2.34009 2.35597 2.37004 2.38303 2.39636 
2.41173 2.42994 2.45015 2.47049 2.48926 2.50534 2.51799 2.52667 2.53089 
2.53027 2.52462 2.514 2.49882 2.47982 2.45805 2.43477 2.4113 2.38892 
2.36879 2.35181 2.33859 2.32945 2.32441 2.32325 2.32557 2.33085 2.33849 
2.3479 2.35845 2.36952 2.3804 2.3903 2.39826 2.40317 2.40385 2.39922 
2.38858 2.37178 2.3493 2.32203 2.2911 2.32497 2.34884 2.37099 2.39135 
2.41001 2.42725 2.44366 2.46008 2.4774 2.49596 2.51536 2.53459 2.55254 
2.56823 2.58083 2.58956 2.59374 2.5928 2.58637 2.57444 2.5574 2.53606 
2.5116 2.48541 2.45898 2.43375 2.41099 2.39169 2.37654 2.36591 2.35986 
2.35818 2.36047 2.36619 2.37473 2.38545 2.39769 2.41079 2.42397 2.43634 
2.44678 2.45391 2.45624 2.45234 2.44131 2.42298 2.39804 2.36773 2.33353 
2.371 2.39699 2.42133 2.44401 2.46513 2.48497 2.50396 2.52262 2.54144 
2.56061 2.57989 2.59873 2.61633 2.63188 2.64449 2.65329 2.65742 2.65614 
2.64894 2.63571 2.61685 2.59324 2.56617 2.53717 2.50788 2.47987 2.4545 
2.43285 2.41569 2.40343 2.39618 2.39374 2.39574 2.40163 2.41078 2.42252 
2.43617 2.45101 2.46621 2.4808 2.49349 2.50268 2.50651 2.50324 2.49168 
2.47171 2.44423 2.41085 2.37342 2.41849 2.44666 2.47316 2.49799 2.52129 
2.54326 2.56425 2.58459 2.60461 2.62442 2.6439 2.66268 2.68018 2.69567 
2.70828 2.71706 2.72104 2.71933 2.71131 2.69682 2.67624 2.65051 2.62102 
2.58943 2.5575 2.52688 2.49903 2.4751 2.45589 2.44189 2.43324 2.42981 
2.43122 2.43694 2.44633 2.45868 2.47328 2.48936 2.50604 2.52227 2.53665 
2.54737 2.55228 2.54933 2.53713 2.51555 2.48572 2.4496 2.40934 2.46751 
2.4979 2.52652 2.55339 2.57861 2.60238 2.62495 2.6466 2.66756 2.68795 
2.70767 2.72647 2.74388 2.75922 2.77166 2.7802 2.78379 2.78147 2.77254 
2.7568 2.73462 2.70699 2.67538 2.64154 2.60729 2.57437 2.54426 2.51817 
2.49695 2.48114 2.47094 2.46626 2.46677 2.47193 2.4811 2.49353 2.50847 
2.52509 2.54246 2.55947 2.57462 2.58597 2.59121 2.58809 2.57512 2.55216 
2.52051 2.48235 2.44002 2.51817 2.55083 2.58156 2.61036 2.63732 2.66262 
2.68649 2.70917 2.73086 2.75167 2.77155 2.79028 2.80744 2.82241 2.83436 
2.8423 2.84516 2.84194 2.83194 2.81492 2.79127 2.76202 2.72866 2.69298 
2.65683 2.62197 2.5899 2.56185 2.53872 2.52109 2.50921 2.50306 2.50232 
2.5065 2.51492 2.52681 2.54136 2.55768 2.57479 2.59149 2.60625 2.6171 
2.6217 2.6178 2.60393 2.57998 2.54728 2.50806 2.46467 2.57059 2.60559 
2.63843 2.66908 2.69763 2.72427 2.74923 2.77273 2.79498 2.81607 2.83596 
2.85444 2.87112 2.8854 2.89647 2.90337 2.90506 2.90058 2.88926 2.87089 
2.84589 2.81528 2.78056 2.74348 2.70589 2.66951 2.63583 2.60608 2.58117 
2.56174 2.54808 2.54023 2.53793 2.54067 2.54779 2.55848 2.57186 2.58698 
2.6028 2.61808 2.63128 2.64048 2.64348 2.63821 2.62335 2.59882 2.56588 
2.5266 2.4832 2.62487 2.66232 2.69728 2.72973 2.75977 2.7876 2.81347 
2.83766 2.86034 2.88162 2.90142 2.91952 2.93549 2.94876 2.95854 2.96392 
2.96396 2.9578 2.94486 2.92502 2.89872 2.86696 2.83121 2.79315 2.75454 
2.71704 2.68209 2.6509 2.62439 2.60322 2.58772 2.57798 2.57378 2.57464 
2.57989 2.5887 2.60013 2.61319 2.6268 2.63968 2.65033 2.65696 2.65763 
2.65056 2.63464 2.60987 2.57732 2.53878 2.49623 2.6811 2.72112 2.75824 
2.79243 2.82384 2.85274 2.87945 2.90425 2.92736 2.94883 2.96856 2.98624 
3.00141 3.01343 3.02157 3.02501 3.02292 3.01464 2.99972 2.97819 2.95054 
2.91774 2.88118 2.84244 2.80315 2.76487 2.72896 2.69658 2.66864 2.64578 
2.62841 2.61661 2.61021 2.60876 2.61159 2.61786 2.62664 2.63691 2.64754 
2.65728 2.66471 2.66821 2.66613 2.65703 2.64005 2.61522 2.58341 2.54609 
2.50492 2.73926 2.78198 2.82127 2.85715 2.88983 2.91971 2.9472 2.97267 
2.99635 3.01824 3.03813 3.05559 3.07003 3.08075 3.08703 3.08815 3.08349 
3.07261 3.05531 3.03177 3.00257 2.96869 2.93139 2.89211 2.85235 2.81351 
2.77686 2.74348 2.71424 2.68978 2.67049 2.65648 2.64761 2.64345 2.64337 
2.64655 2.65208 2.65895 2.66605 2.67219 2.67604 2.67618 2.67123 2.66006 
2.64203 2.61718 2.58619 2.55024 2.51065 2.79914 2.84468 2.88615 2.9236 
2.95744 2.98821 3.01652 3.04288 3.0675 3.09034 3.11097 3.12875 3.14285 
3.15245 3.15679 3.15529 3.1476 3.13359 3.11338 3.08738 3.0563 3.0211 
2.98295 2.94312 2.90293 2.86362 2.82634 2.79207 2.76162 2.73558 2.71432 
2.69798 2.6864 2.67921 2.67581 2.67545 2.67727 2.68031 2.68354 2.68584 
2.68599 2.68275 2.675 2.66182 2.64274 2.6178 2.58754 2.55285 2.51479 
2.86024 2.90869 2.95226 2.99113 3.02593 3.05752 3.08681 3.11447 3.14078 
3.16553 3.18801 3.20715 3.22175 3.23069 3.23316 3.22876 3.21747 3.19964 
3.17581 3.14672 3.11323 3.07632 3.03703 2.99647 2.95574 2.91592 2.87798 
2.84281 2.81114 2.7835 2.76023 2.74143 2.72698 2.71651 2.7095 2.70528 
2.70308 2.70204 2.70122 2.6996 2.69608 2.68958 2.67915 2.66404 2.64389 
2.61872 2.58896 2.55528 2.51853 2.92158 2.97293 3.01842 3.05842 3.09392 
3.12628 3.15682 3.18653 3.21576 3.24407 3.27025 3.29256 3.30908 3.31821 
3.31898 3.31125 3.29555 3.27288 3.24442 3.21135 3.17475 3.13558 3.09476 
3.05315 3.01165 2.9711 2.93234 2.89614 2.86313 2.83381 2.80844 2.7871 
2.76965 2.75577 2.74499 2.73674 2.73037 2.72514 2.72023 2.71471 2.70762 
2.698 2.685 2.66801 2.64671 2.62113 2.59159 2.5586 2.52283 2.98145 
3.03555 3.08261 3.12329 3.15912 3.19215 3.22441 3.25736 3.29145 3.32594 
3.35883 3.38722 3.40798 3.41861 3.41786 3.406 3.38449 3.35541 3.32086 
3.28262 3.242 3.19993 3.15711 3.11408 3.07145 3.02984 2.98995 2.95243 
2.91786 2.88667 2.85908 2.83511 2.81462 2.7973 2.78273 2.77044 2.7599 
2.7505 2.74153 2.73221 2.72165 2.709 2.6935 2.67461 2.65206 2.62585 
2.5962 2.56354 2.52837 3.03722 3.09368 3.14171 3.18237 3.21799 3.25162 
3.28626 3.32412 3.36598 3.41067 3.45499 3.49412 3.52278 3.53681 3.53449 
3.51691 3.48719 3.44919 3.40642 3.36143 3.31577 3.27018 3.22494 3.18013 
3.13597 3.09283 3.0513 3.01198 2.97547 2.94212 2.91214 2.88548 2.86195 
2.84125 2.82299 2.80678 2.79219 2.77875 2.76586 2.75283 2.73888 2.72325 
2.70525 2.6844 2.66043 2.63333 2.60326 2.57055 2.53561 3.0852 3.14324 
3.19131 3.23101 3.26566 3.29966 3.33744 3.38243 3.43608 3.49689 3.55994 
3.61722 3.65956 3.67973 3.67518 3.64871 3.60659 3.55574 3.50175 3.44811 
3.39641 3.34688 3.29904 3.25223 3.2061 3.16078 3.11685 3.07503 3.03597 
3.00007 2.96746 2.93803 2.91151 2.88756 2.8658 2.84589 2.82747 2.81018 
2.79351 2.77689 2.75963 2.74103 2.7205 2.69757 2.672 2.64375 2.61295 
2.57983 2.54474 3.1208 3.17915 3.22594 3.26335 3.29592 3.32973 3.3712 
3.42576 3.49632 3.58153 3.67426 3.7614 3.8267 3.8569 3.84802 3.80661 
3.74506 3.67548 3.60635 3.54201 3.48363 3.43034 3.38029 3.33155 3.28299 
3.23456 3.18708 3.14165 3.09919 3.06017 3.02464 2.99236 2.96292 2.9359 
2.91088 2.88753 2.86555 2.84463 2.82437 2.80428 2.78376 2.76221 2.73908 
2.71396 2.68661 2.65698 2.62516 2.59133 2.55575 3.13919 3.19603 3.23977 
3.27311 3.30187 3.33407 3.37882 3.44474 3.53772 3.65789 3.79601 3.93124 
4.03441 4.0802 4.06203 3.99478 3.90275 3.80642 3.71766 3.64101 3.57631 
3.52065 3.46985 3.41985 3.36832 3.31525 3.26236 3.21168 3.16463 3.12177 
3.08298 3.04777 3.01551 2.98561 2.95759 2.93108 2.9058 2.88149 2.85783 
2.8344 2.8107 2.78622 2.76046 2.73307 2.70382 2.67264 2.63957 2.60478 
2.56844 3.13657 3.1896 3.22806 3.25496 3.27709 3.30455 3.34983 3.42641 
3.54573 3.71215 3.91584 4.12561 4.28981 4.35909 4.32196 4.21145 4.07401 
3.94204 3.82999 3.74093 3.67213 3.61762 3.56943 3.51981 3.46443 3.40407 
3.34273 3.28438 3.23123 3.18374 3.14138 3.10321 3.06826 3.0357 3.00493 
2.97551 2.94719 2.91972 2.89285 2.86624 2.83949 2.81215 2.78381 2.75414 
2.72293 2.6901 2.65567 2.61973 2.58245 3.11156 3.15828 3.18892 3.2063 
3.21753 3.23428 3.27296 3.35402 3.49822 3.71849 4.00764 4.32305 4.57862 
4.68165 4.61221 4.43821 4.24196 4.06913 3.93367 3.83499 3.767 3.72013 
3.68095 3.63489 3.57395 3.50152 3.42701 3.35786 3.297 3.24428 3.19827 
3.15729 3.11986 3.08488 3.05159 3.01951 2.98836 2.95796 2.92809 2.89851 
2.86889 2.83886 2.80806 2.77621 2.7431 2.70862 2.67278 2.63562 2.59728 
3.06609 3.10429 3.12469 3.1291 3.12362 3.1201 3.1385 3.20852 3.36562 