# vtk DataFile Version 3.0
vtk output
ASCII
DATASET UNSTRUCTURED_GRID

POINTS 30 float
0 0 0 1 0 0 2 0 0 
0 0 1 1 0 1 2 0 1 
0 1 0 1 1 0 2 1 0 
0 1 1 1 1 1 2 1 1 
0 2 0 1 2 0 2 2 0 
0 2 1 1 2 1 2 2 1 
1 3 1 2.75 0 1 3 0 0.75 
3 0.25 1 3 1 1 3 1 0 
2.75 2 1 3 1.75 1 3 1.75 0.75 
3 0 0 2.575 0.425 0.575 2.59375 1.4375 0.71875 

CELLS 27 160
8 0 3 4 1 6 9 10 7 
8 1 4 5 2 7 10 11 8 
6 11 8 17 10 7 16 
6 8 14 17 7 13 16 
4 12 15 16 18 
4 13 12 16 18 
5 6 7 10 9 16 
5 6 9 15 12 16 
5 7 6 12 13 16 
4 19 21 20 28 
5 20 27 2 5 28 
4 5 19 20 28 
5 23 27 20 21 28 
4 21 22 23 28 
5 21 19 5 11 28 
4 11 22 21 28 
5 11 5 2 8 28 
5 22 11 8 23 28 
5 23 8 2 27 28 
5 26 23 22 25 29 
5 25 22 11 17 29 
4 17 24 25 29 
4 8 17 11 29 
5 23 8 11 22 29 
4 24 26 25 29 
5 24 17 8 23 29 
4 23 26 24 29 

CELL_TYPES 27
12
12
13
13
10
10
14
14
14
10
14
10
14
10
14
10
14
14
14
14
14
10
10
14
10
14
10

POINT_DATA 30
SCALARS var_point  float
LOOKUP_TABLE default
4 5 9.5 5.5 6 9.5 5 5.5 5.7 
6.5 6.4 6.9 6.6 6.1 7.1 7.2 7.3 7.4 
9.1 9.2 9.3 5.4 9.5 9.6 6.7 9.8 6 
4.3 4.9 4.1

CELL_DATA 27
SCALARS var  float
LOOKUP_TABLE default
4 5 9.5 5.5 6 9.5 5 5.5 5.7 
6.5 6.4 6.9 6.6 6.1 7.1 7.2 7.3 7.4 
9.1 9.2 9.3 5.4 9.5 9.6 6.7 9.8 6 
